/*--------------------------------*- C++ -*----------------------------------*\
| =========                 |                                                 |
| \\      /  F ield         | OpenFOAM: The Open Source CFD Toolbox           |
|  \\    /   O peration     | Version:  4.1                                   |
|   \\  /    A nd           | Web:      www.OpenFOAM.org                      |
|    \\/     M anipulation  |                                                 |
\*---------------------------------------------------------------------------*/
FoamFile
{
    version     2.0;
    format      ascii;
    class       volScalarField;
    location    "298";
    object      epsilon;
}
// * * * * * * * * * * * * * * * * * * * * * * * * * * * * * * * * * * * * * //

dimensions      [0 2 -3 0 0 0 0];

internalField   nonuniform List<scalar> 
12225
(
1130.08
2611.29
3861.02
4651.1
5051.63
5192.43
5173.79
5117.76
5004.83
4882.45
4764.39
4653.34
4555.47
4464.77
4390.67
4317.1
4268.2
4200.06
82.7567
272.883
458.211
608.763
717.645
788.437
828.463
852.893
867.811
877.419
885.922
893.356
902.049
910.615
920.253
930.126
939.033
951.539
20.0887
50.8901
83.5834
112.871
137.269
156.513
170.104
179.715
185.839
190.103
192.527
194.543
195.603
197.05
197.812
199.499
199.841
203.674
14.519
21.3622
28.9805
37.1647
44.5734
51.1715
56.5326
61.0172
64.3903
67.1735
69.103
70.7332
71.7453
72.6691
73.1351
73.6905
73.6995
74.5269
14.2883
16.0542
17.8303
20.5336
23.1906
25.7685
28.0374
30.11
31.8177
33.3614
34.5582
35.6657
36.4535
37.239
37.712
38.2826
38.4941
38.9737
14.5464
14.8885
15.1707
15.9435
16.856
17.8611
18.8188
19.7625
20.5884
21.3848
22.0376
22.6819
23.1654
23.6823
24.0123
24.4371
24.6207
25.0185
14.7164
14.5889
14.5778
14.6594
14.83
15.1342
15.4607
15.8261
16.1697
16.5298
16.838
17.163
17.4155
17.7005
17.8901
18.1428
18.2637
18.5037
14.7576
14.5798
14.4527
14.3666
14.343
14.3687
14.4293
14.5394
14.6593
14.8017
14.9293
15.078
15.1956
15.3384
15.4349
15.5689
15.6374
15.7704
14.7658
14.5893
14.4322
14.2945
14.1853
14.1069
14.0534
14.0267
14.0272
14.0368
14.0563
14.0935
14.1225
14.1702
14.2001
14.2502
14.2778
14.3314
14.7663
14.5938
14.4319
14.2813
14.1436
14.0221
13.9158
13.8253
13.7501
13.6906
13.6379
13.6013
13.5658
13.5448
13.5201
13.5095
13.4899
13.4917
14.7659
14.5944
14.4325
14.2802
14.1367
14.0032
13.8788
13.765
13.6595
13.5655
13.4777
13.4011
13.3285
13.2668
13.2061
13.157
13.1043
13.0668
14.7658
14.5942
14.4323
14.2799
14.1357
14
13.8717
13.7515
13.6377
13.5319
13.4316
13.339
13.2509
13.1702
13.0928
13.0228
12.9544
12.8939
14.7657
14.594
14.432
14.2794
14.1351
13.999
13.8701
13.7486
13.6333
13.5246
13.4213
13.3241
13.2316
13.1446
13.0618
12.984
12.9096
12.84
14.7657
14.5939
14.4318
14.2789
14.1346
13.9982
13.8693
13.7473
13.6318
13.5225
13.4187
13.3204
13.2271
13.1386
13.0544
12.9746
12.8986
12.8265
14.7657
14.5938
14.4316
14.2786
14.1341
13.9977
13.8686
13.7464
13.6308
13.5212
13.4173
13.3187
13.2251
13.1363
13.0518
12.9716
12.8952
12.8225
14.7657
14.5937
14.4315
14.2784
14.1338
13.9972
13.868
13.7458
13.63
13.5203
13.4162
13.3175
13.2238
13.1348
13.0502
12.9698
12.8933
12.8205
14.7657
14.5937
14.4314
14.2783
14.1336
13.9969
13.8677
13.7453
13.6294
13.5196
13.4155
13.3167
13.2229
13.1338
13.0491
12.9686
12.892
12.8191
14.7657
14.5937
14.4314
14.2782
14.1336
13.9968
13.8675
13.7451
13.6292
13.5193
13.4151
13.3163
13.2224
13.1332
13.0485
12.9679
12.8913
12.8183
14.7657
14.5937
14.4314
14.2782
14.1336
13.9969
13.8675
13.7451
13.6292
13.5193
13.4151
13.3162
13.2224
13.1332
13.0484
12.9679
12.8912
12.8183
14.7657
14.5937
14.4315
14.2783
14.1337
13.997
13.8677
13.7453
13.6294
13.5196
13.4154
13.3166
13.2228
13.1336
13.049
12.9685
12.892
12.8191
14.7657
14.5937
14.4316
14.2785
14.1339
13.9972
13.868
13.7457
13.63
13.5203
13.4165
13.318
13.2248
13.1362
13.0523
12.9726
12.8971
12.8252
14.7658
14.5937
14.4317
14.2786
14.1342
13.9978
13.8692
13.7478
13.6336
13.5258
13.4247
13.3292
13.2398
13.1553
13.0764
13.0015
12.932
12.8654
14.766
14.5935
14.4318
14.2789
14.1364
14.0034
13.881
13.7678
13.665
13.5705
13.4854
13.4074
13.3375
13.273
13.2161
13.1619
13.1157
13.0694
14.7663
14.5917
14.4339
14.2884
14.1664
14.0629
13.9809
13.9155
13.8697
13.8353
13.8154
13.802
13.7989
13.8003
13.8055
13.8121
13.8266
13.8322
14.7628
14.5925
14.48
14.4129
14.4221
14.4696
14.5552
14.6732
14.8187
14.9641
15.1253
15.2746
15.4343
15.5742
15.7246
15.8472
15.9863
16.0875
14.7522
14.7226
14.9518
15.2674
15.8064
16.391
17.0246
17.6298
18.2489
18.8061
19.3671
19.85
20.3397
20.7417
21.1615
21.4849
21.8437
22.0937
15.1007
15.7871
17.6508
19.7826
22.0001
24.1072
26.1672
28.0117
29.8009
31.3255
32.8217
34.0253
35.2442
36.1557
37.1348
37.7976
38.5826
39.0429
17.2945
24.2577
33.6643
42.1566
50.1569
57.5548
64.5058
70.6094
76.2578
80.9069
85.2565
88.5377
91.7804
93.9292
96.3354
97.6238
99.4626
100.149
41.9838
92.2687
140.377
183.841
226.189
266.307
302.447
333.554
359.958
381.447
399.368
413.163
425.123
433.497
441.774
446.669
453.303
455.787
569.979
929.773
1287.43
1576.94
1844.37
2077.97
2271.59
2424.47
2538.82
2619.89
2672.52
2703.16
2715.57
2713.3
2704.22
2688.3
2666.27
2640.97
0.155085
0.156093
0.271351
0.398705
0.523504
0.63955
0.745208
0.840697
0.92704
1.00759
1.09066
1.17616
1.2664
1.36387
1.47027
1.58628
1.71184
1.84706
1.99402
2.16064
2.36637
2.6318
2.95299
3.32615
3.75509
4.24781
4.81436
5.46553
6.21181
7.06194
8.0206
9.08839
10.2686
11.5597
12.9614
14.472
16.0909
17.8165
19.6478
21.5845
23.6271
25.7774
28.0392
30.4189
32.9266
35.5781
38.3962
41.4154
44.6063
47.9285
51.4071
55.0366
58.8258
62.7772
66.896
71.1864
75.6528
80.2997
85.131
90.1511
95.3634
100.772
106.38
112.19
118.205
124.428
130.861
137.504
144.359
151.428
158.708
166.201
173.904
181.818
189.938
198.262
206.787
215.508
224.421
233.52
242.798
252.248
261.864
271.636
281.554
291.61
301.793
312.09
322.49
332.979
343.543
354.168
364.834
375.525
386.22
396.896
407.528
418.088
428.549
438.89
449.101
459.216
469.268
479.15
488.9
498.486
507.901
517.124
526.141
534.935
543.491
551.791
559.822
567.568
575.014
582.147
588.953
595.421
601.537
607.29
612.671
617.67
622.277
626.486
630.289
633.681
636.657
639.214
641.347
643.056
644.331
645.152
645.726
645.723
645.309
644.363
643.098
641.518
639.474
637.047
634.234
631.048
627.498
623.6
619.366
614.812
609.941
604.769
599.308
593.572
587.573
581.327
574.847
568.148
561.245
554.153
546.887
539.462
531.895
524.201
516.398
508.501
500.533
492.521
484.528
476.907
472.055
469.131
466.351
463.551
460.716
457.84
454.921
451.938
448.858
445.599
442.001
437.591
431.438
407.276
0.603384
0.360125
0.328486
0.341725
0.373372
0.415045
0.463778
0.519017
0.581449
0.652699
0.734958
0.828661
0.935092
1.05597
1.19314
1.34843
1.52368
1.72098
1.94264
2.19088
2.47128
2.79171
3.15449
3.56075
4.01254
4.51256
5.06325
5.66569
6.31821
7.01413
7.7437
8.51699
9.33302
10.1903
11.0882
12.0282
13.005
14.0197
15.0735
16.1682
17.306
18.4897
19.7226
21.0082
22.3503
23.7526
25.2181
26.7477
28.3379
29.9884
31.7028
33.4816
35.3271
37.2404
39.2232
41.277
43.403
45.6026
47.8769
50.227
52.6538
55.1583
57.7411
60.4029
63.1441
65.9651
68.866
71.8468
74.9073
78.0472
81.266
84.5629
87.937
91.3872
94.9121
98.5103
102.18
105.919
109.725
113.596
117.529
121.521
125.569
129.67
133.819
138.013
142.248
146.518
150.819
155.146
159.493
163.853
168.22
172.588
176.947
181.292
185.613
189.904
194.162
198.389
202.597
206.822
211.082
215.276
219.418
223.499
227.513
231.453
235.313
239.086
242.768
246.35
249.827
253.194
256.445
259.574
262.575
265.444
268.176
270.767
273.211
275.506
277.646
279.63
281.454
283.116
284.613
285.944
287.107
288.1
288.923
289.578
290.078
290.38
290.501
290.454
290.241
289.893
289.365
288.68
287.835
286.835
285.683
284.383
282.94
281.359
279.642
277.795
275.822
273.728
271.518
269.198
266.772
264.247
261.627
258.919
256.128
253.26
250.322
247.32
244.26
241.149
237.996
234.812
231.623
228.532
225.974
223.838
221.785
219.741
217.693
215.638
213.579
211.514
209.444
207.368
205.27
203.189
201.024
197.317
1.32365
0.651773
0.514522
0.486501
0.495873
0.525806
0.57106
0.629576
0.701219
0.786906
0.888203
1.00661
1.14362
1.30069
1.47922
1.68061
1.90632
2.15808
2.4381
2.7493
3.09298
3.46799
3.87393
4.3103
4.77627
5.27096
5.79353
6.34354
6.92165
7.53136
8.17854
8.85749
9.56831
10.3122
11.0851
11.8767
12.7024
13.5646
14.4649
15.4049
16.3861
17.4102
18.4784
19.5924
20.7534
21.9625
23.2206
24.5286
25.8858
27.2933
28.7522
30.2636
31.8284
33.4477
35.1223
36.8533
38.6416
40.4879
42.3928
44.3571
46.3814
48.466
50.6116
52.8185
55.0868
57.4169
59.8087
62.2623
64.7774
67.3538
69.991
72.6885
75.4456
78.2614
81.135
84.0652
87.0507
90.0899
93.1814
96.3231
99.5131
102.749
106.029
109.35
112.709
116.103
119.529
122.984
126.463
129.964
133.481
137.012
140.55
144.091
147.632
151.168
154.696
158.212
161.716
165.21
168.696
172.179
175.642
179.064
182.444
185.774
189.05
192.267
195.419
198.502
201.509
204.436
207.278
210.03
212.687
215.245
217.7
220.047
222.283
224.402
226.403
228.282
230.035
231.661
233.156
234.518
235.746
236.839
237.794
238.611
239.289
239.83
240.233
240.487
240.581
240.557
240.394
240.105
239.679
239.12
238.432
237.616
236.676
235.614
234.436
233.143
231.74
230.23
228.618
226.906
225.099
223.202
221.219
219.154
217.012
214.798
212.516
210.171
207.769
205.314
202.812
200.268
197.689
195.084
192.472
189.906
187.527
185.32
183.174
181.045
178.924
176.809
174.702
172.607
170.532
168.488
166.494
164.628
162.891
161.172
2.09329
0.941846
0.718465
0.664229
0.665602
0.696093
0.747395
0.816834
0.904038
1.00972
1.1351
1.28147
1.45005
1.64181
1.85749
2.0976
2.36253
2.65258
2.96795
3.30867
3.67421
4.06365
4.47617
4.91125
5.36868
5.84871
6.352
6.87969
7.43336
8.01478
8.62523
9.26438
9.93225
10.6285
11.3565
12.1252
12.9308
13.7737
14.6553
15.5768
16.5399
17.5446
18.5916
19.6817
20.8155
21.9932
23.2146
24.4795
25.7907
27.1494
28.5566
30.0132
31.5202
33.0785
34.6889
36.3524
38.0699
39.8422
41.67
43.5541
45.495
47.4934
49.5497
51.6645
53.8382
56.0711
58.3634
60.7153
63.1267
65.5976
68.1279
70.7171
73.3648
76.0704
78.8332
81.6522
84.5264
87.4544
90.435
93.4664
96.5469
99.6746
102.847
106.062
109.317
112.609
115.935
119.293
122.677
126.086
129.515
132.961
136.418
139.885
143.356
146.828
150.298
153.763
157.221
160.669
164.107
167.528
170.92
174.274
177.586
180.85
184.06
187.21
190.297
193.313
196.255
199.116
201.892
204.578
207.17
209.662
212.05
214.331
216.499
218.552
220.485
222.297
223.982
225.54
226.967
228.262
229.422
230.447
231.335
232.085
232.697
233.171
233.505
233.684
233.728
233.642
233.421
233.069
232.583
231.967
231.223
230.353
229.362
228.251
227.025
225.688
224.242
222.692
221.043
219.297
217.46
215.536
213.528
211.443
209.284
207.056
204.764
202.413
200.007
197.553
195.054
192.518
189.949
187.358
184.758
182.182
179.693
177.292
174.937
172.604
170.285
167.98
165.693
163.431
161.203
159.029
156.931
154.992
153.234
151.695
2.78401
1.21661
0.93008
0.859064
0.856976
0.891348
0.951255
1.03294
1.13547
1.25916
1.40475
1.57304
1.76463
1.97979
2.21847
2.4803
2.76476
3.07121
3.39898
3.74744
4.11598
4.50419
4.91197
5.33965
5.78796
6.25798
6.75112
7.26893
7.81303
8.38494
8.98596
9.61712
10.2796
10.9749
11.705
12.472
13.2761
14.118
14.9984
15.9181
16.8772
17.8775
18.9197
20.0047
21.1332
22.3063
23.525
24.791
26.1041
27.4651
28.8751
30.3349
31.8458
33.4086
35.0246
36.6946
38.4198
40.2013
42.04
43.9372
45.8934
47.9094
49.9858
52.1235
54.3231
56.5853
58.9105
61.2992
63.7517
66.2681
68.8486
71.4931
74.2014
76.9731
79.8076
82.7044
85.6624
88.6807
91.7579
94.8926
98.083
101.327
104.623
107.968
111.36
114.795
118.272
121.785
125.333
128.911
132.515
136.142
139.787
143.446
147.115
150.789
154.465
158.138
161.804
165.457
169.092
172.702
176.28
179.818
183.311
186.752
190.135
193.455
196.706
199.881
202.975
205.982
208.897
211.714
214.428
217.035
219.529
221.906
224.161
226.291
228.292
230.16
231.892
233.485
234.938
236.247
237.411
238.428
239.298
240.019
240.592
241.016
241.283
241.39
241.363
241.19
240.872
240.412
239.811
239.072
238.197
237.189
236.053
234.791
233.408
231.909
230.296
228.575
226.751
224.827
222.809
220.701
218.509
216.238
213.891
211.476
208.996
206.458
203.866
201.226
198.544
195.826
193.078
190.308
187.529
184.763
182.042
179.373
176.74
174.131
171.543
168.978
166.439
163.937
161.485
159.103
156.825
154.721
152.81
151.092
3.35921
1.48432
1.14529
1.06094
1.05709
1.09581
1.16378
1.25604
1.37092
1.50813
1.66783
1.85025
2.05536
2.28285
2.53211
2.80232
3.09258
3.40205
3.73002
4.07607
4.44004
4.82215
5.223
5.64351
6.08495
6.54877
7.03655
7.54992
8.09046
8.65967
9.25894
9.8896
10.553
11.2504
11.9834
12.7529
13.56
14.4055
15.2902
16.2149
17.1807
18.1885
19.2394
20.3343
21.4742
22.6601
23.8932
25.1746
26.5052
27.886
29.3181
30.8029
32.3417
33.9355
35.5859
37.294
39.0611
40.8886
42.7775
44.729
46.7445
48.8254
50.9728
53.1879
55.4718
57.8253
60.2493
62.7447
65.312
67.9519
70.6645
73.4503
76.3091
79.241
82.2454
85.322
88.4698
91.688
94.9752
98.33
101.751
105.235
108.781
112.385
116.046
119.759
123.522
127.331
131.182
135.07
138.992
142.942
146.916
150.91
154.917
158.933
162.952
166.97
170.978
174.972
178.944
182.887
186.794
190.657
194.469
198.224
201.915
205.535
209.077
212.534
215.9
219.169
222.334
225.389
228.328
231.147
233.839
236.399
238.823
241.106
243.243
245.233
247.069
248.751
250.274
251.638
252.839
253.877
254.751
255.459
256.002
256.379
256.574
256.613
256.493
256.211
255.771
255.173
254.421
253.517
252.466
251.269
249.933
248.461
246.858
245.129
243.278
241.311
239.234
237.051
234.769
232.392
229.926
227.377
224.751
222.053
219.289
216.466
213.589
210.664
207.698
204.697
201.667
198.618
195.56
192.508
189.483
186.494
183.535
180.604
177.699
174.824
171.987
169.198
166.471
163.83
161.31
158.969
156.815
154.788
3.81586
1.7288
1.35254
1.25866
1.25389
1.29619
1.37029
1.4701
1.59322
1.73873
1.90625
2.09551
2.30605
2.53725
2.78826
3.05821
3.34624
3.6517
3.9742
4.31369
4.67049
5.04526
5.43898
5.8529
6.28844
6.74715
7.23061
7.74039
8.27802
8.84496
9.44261
10.0723
10.7354
11.4331
12.1667
12.9375
13.7463
14.5944
15.4828
16.4126
17.3849
18.4007
19.4614
20.5681
21.7219
22.9241
24.176
25.4789
26.8342
28.2432
29.7075
31.2285
32.8079
34.4473
36.1483
37.9125
39.7416
41.6373
43.6013
45.6351
47.7406
49.9194
52.1731
54.5033
56.9115
59.399
61.967
64.6169
67.3495
70.1657
73.0663
76.0518
79.1225
82.2785
85.5195
88.8452
92.255
95.7477
99.3223
102.977
106.71
110.519
114.402
118.355
122.375
126.46
130.604
134.804
139.055
143.353
147.691
152.066
156.47
160.899
165.346
169.804
174.267
178.728
183.18
187.614
192.022
196.398
200.731
205.016
209.242
213.403
217.491
221.497
225.414
229.235
232.952
236.557
240.044
243.405
246.634
249.725
252.671
255.467
258.108
260.588
262.903
265.049
267.022
268.818
270.436
271.871
273.124
274.192
275.074
275.771
276.282
276.598
276.721
276.671
276.439
276.026
275.436
274.672
273.735
272.631
271.363
269.936
268.355
266.624
264.751
262.74
260.596
258.328
255.939
253.437
250.828
248.119
245.315
242.424
239.452
236.405
233.29
230.114
226.884
223.606
220.287
216.934
213.556
210.159
206.754
203.353
199.972
196.618
193.295
190.001
186.741
183.52
180.346
177.231
174.191
171.252
168.443
165.817
163.363
160.977
4.18649
1.95291
1.54752
1.44468
1.43796
1.48171
1.55906
1.66289
1.79006
1.93906
2.10908
2.29949
2.50961
2.73871
2.986
3.25073
3.53231
3.83038
4.14489
4.47612
4.8247
5.19153
5.57776
5.98471
6.41382
6.86659
7.34456
7.84927
8.3822
8.94478
9.53844
10.1646
10.8244
11.5192
12.2504
13.0193
13.8273
14.6756
15.5654
16.4983
17.4754
18.4982
19.5681
20.6863
21.8545
23.0742
24.3469
25.6743
27.0581
28.5001
30.0023
31.5667
33.1952
34.8898
36.6527
38.4858
40.3915
42.3717
44.4288
46.5648
48.7821
51.0826
53.4686
55.9421
58.5051
61.1593
63.9066
66.7486
69.6866
72.722
75.8558
79.0888
82.4217
85.8546
89.3877
93.0205
96.7525
100.583
104.51
108.532
112.646
116.852
121.145
125.521
129.979
134.512
139.117
143.789
148.522
153.31
158.148
163.029
167.946
172.892
177.86
182.842
187.829
192.814
197.787
202.739
207.662
212.546
217.381
222.158
226.869
231.504
236.054
240.51
244.864
249.105
253.227
257.22
261.076
264.788
268.348
271.749
274.985
278.048
280.933
283.635
286.148
288.467
290.59
292.511
294.229
295.74
297.044
298.138
299.022
299.697
300.161
300.401
300.439
300.273
299.903
299.332
298.563
297.599
296.444
295.102
293.579
291.881
290.012
287.98
285.79
283.45
280.966
278.346
275.596
272.725
269.738
266.644
263.45
260.163
256.791
253.342
249.823
246.241
242.604
238.92
235.196
231.439
227.659
223.863
220.061
216.264
212.484
208.73
205.007
201.32
197.672
194.073
190.53
187.058
183.674
180.401
177.268
174.318
171.526
168.759
4.89613
2.23161
1.74764
1.6204
1.605
1.64551
1.72222
1.82633
1.95372
2.10229
2.27081
2.4584
2.66431
2.88782
3.12831
3.38524
3.65828
3.94736
4.25269
4.57475
4.91434
5.27246
5.65033
6.04922
6.47043
6.91533
7.38558
7.88272
8.40825
8.96364
9.55037
10.17
10.8241
11.5141
12.241
13.0062
13.8112
14.6575
15.5466
16.4802
17.4598
18.4872
19.5644
20.6935
21.8766
23.1151
24.4108
25.7653
27.1808
28.66
30.2054
31.8196
33.5049
35.264
37.0994
39.0137
41.0097
43.0901
45.2576
47.515
49.8652
52.3107
54.8543
57.4986
60.246
63.0991
66.06
69.1309
72.3135
75.6096
79.0206
82.5476
86.1914
89.9524
93.8309
97.8265
101.938
106.166
110.507
114.96
119.522
124.19
128.961
133.831
138.795
143.849
148.986
154.202
159.489
164.841
170.251
175.71
181.211
186.746
192.304
197.878
203.456
209.03
214.589
220.123
225.621
231.072
236.466
241.791
247.039
252.197
257.256
262.206
267.036
271.736
276.298
280.71
284.965
289.054
292.967
296.698
300.239
303.582
306.721
309.651
312.365
314.859
317.129
319.17
320.98
322.556
323.897
325.001
325.869
326.5
326.89
327.038
326.958
326.647
326.108
325.345
324.362
323.162
321.75
320.132
318.315
316.303
314.105
311.728
309.179
306.465
303.596
300.579
297.423
294.136
290.725
287.201
283.571
279.843
276.027
272.13
268.162
264.13
260.042
255.909
251.736
247.534
243.311
239.075
234.837
230.605
226.392
222.207
218.057
213.947
209.886
205.882
201.945
198.09
194.334
190.699
187.213
183.91
180.752
177.593
5.88118
2.55246
1.94724
1.78106
1.75018
1.78268
1.85496
1.956
2.0805
2.22567
2.38991
2.57214
2.77157
2.98757
3.21965
3.4675
3.731
4.01029
4.30573
4.61784
4.94739
5.29569
5.66405
6.05396
6.46719
6.90489
7.36803
7.85797
8.37618
8.92414
9.50338
10.1154
10.7617
11.4436
12.1629
12.9212
13.7205
14.5626
15.4495
16.383
17.3652
18.398
19.4836
20.6238
21.821
23.0775
24.3961
25.7802
27.2319
28.7541
30.3498
32.0223
33.7746
35.6098
37.5311
39.5417
41.645
43.8443
46.1432
48.5449
51.053
53.6708
56.4016
59.2486
62.215
65.3036
68.5173
71.8586
75.3298
78.933
82.67
86.5419
90.5499
94.6945
98.9758
103.394
107.947
112.634
117.453
122.402
127.478
132.677
137.994
143.426
148.966
154.609
160.347
166.175
172.084
178.066
184.113
190.215
196.363
202.546
208.754
214.976
221.201
227.418
233.614
239.777
245.895
251.956
257.949
263.859
269.677
275.39
280.986
286.454
291.782
296.959
301.975
306.819
311.481
315.951
320.221
324.281
328.123
331.74
335.125
338.271
341.172
343.824
346.222
348.361
350.24
351.855
353.205
354.29
355.11
355.665
355.948
355.971
355.733
355.238
354.492
353.498
352.259
350.782
349.072
347.136
344.98
342.613
340.043
337.277
334.325
331.196
327.899
324.443
320.838
317.093
313.218
309.223
305.116
300.908
296.608
292.226
287.77
283.251
278.678
274.059
269.404
264.722
260.023
255.315
250.609
245.914
241.241
236.6
231.999
227.447
222.95
218.521
214.169
209.91
205.76
201.743
197.88
194.201
190.66
187.103
6.85813
2.85773
2.12663
1.91774
1.86835
1.88992
1.95508
2.05054
2.16982
2.30952
2.46765
2.64297
2.83466
3.04215
3.26508
3.50319
3.75651
4.02558
4.31116
4.61441
4.93607
5.27662
5.63709
6.01862
6.42227
6.84917
7.30086
7.77909
8.28546
8.82157
9.38905
9.98955
10.6248
11.2966
12.0071
12.7583
13.5522
14.3909
15.2765
16.2115
17.1981
18.2388
19.3362
20.493
21.712
22.9962
24.3486
25.7721
27.2683
28.8428
30.5004
32.2449
34.0799
36.009
38.036
40.1649
42.3998
44.7447
47.2039
49.7815
52.4816
55.3083
58.2655
61.3571
64.5869
67.9582
71.4744
75.1384
78.953
82.9205
87.0427
91.3211
95.7568
100.35
105.101
110.009
115.073
120.29
125.659
131.176
136.837
142.637
148.572
154.636
160.821
167.121
173.528
180.032
186.626
193.299
200.042
206.842
213.689
220.571
227.476
234.391
241.304
248.2
255.066
261.889
268.654
275.349
281.959
288.471
294.872
301.147
307.285
313.273
319.097
324.746
330.208
335.471
340.525
345.359
349.964
354.33
358.448
362.31
365.91
369.239
372.293
375.066
377.554
379.752
381.658
383.27
384.587
385.607
386.333
386.765
386.901
386.748
386.306
385.58
384.578
383.305
381.765
379.963
377.909
375.608
373.069
370.302
367.315
364.118
360.721
357.134
353.368
349.433
345.34
341.1
336.723
332.221
327.603
322.881
318.065
313.165
308.192
303.156
298.068
292.936
287.772
282.585
277.385
272.181
266.984
261.804
256.652
251.537
246.469
241.457
236.511
231.641
226.86
222.182
217.624
213.207
208.952
204.882
200.947
196.993
7.77705
3.13135
2.27809
2.0265
1.95748
1.96656
2.02286
2.111
2.22348
2.35632
2.50721
2.67472
2.85789
3.05645
3.27039
3.50009
3.74568
4.00701
4.2844
4.57817
4.88883
5.21776
5.56621
5.9354
6.32661
6.74142
7.18154
7.64836
8.14349
8.66862
9.22555
9.8162
10.4426
11.1068
11.8111
12.5578
13.3493
14.1883
15.0772
16.0189
17.0164
18.0724
19.1901
20.3729
21.6247
22.9484
24.3466
25.8209
27.3791
29.0264
30.7669
32.6064
34.5502
36.602
38.7664
41.0482
43.4521
45.9831
48.6462
51.4463
54.3882
57.4767
60.7165
64.1118
67.667
71.3859
75.2723
79.3293
83.5599
87.9663
92.5505
97.3138
102.257
107.38
112.682
118.162
123.819
129.648
135.647
141.812
148.137
154.616
161.244
168.011
174.912
181.935
189.073
196.315
203.649
211.065
218.551
226.093
233.678
241.294
248.925
256.558
264.178
271.769
279.317
286.806
294.22
301.546
308.767
315.868
322.835
329.654
336.31
342.789
349.078
355.163
361.033
366.675
372.078
377.229
382.121
386.741
391.082
395.135
398.893
402.349
405.497
408.331
410.848
413.045
414.917
416.464
417.686
418.582
419.153
419.402
419.332
418.944
418.236
417.223
415.91
414.302
412.406
410.229
407.778
405.063
402.093
398.879
395.431
391.759
387.875
383.79
379.517
375.066
370.45
365.682
360.771
355.732
350.574
345.311
339.952
334.511
328.997
323.423
317.798
312.135
306.443
300.733
295.015
289.301
283.599
277.921
272.278
266.679
261.135
255.655
250.251
244.933
239.714
234.608
229.634
224.809
220.151
215.683
211.35
207.003
8.61382
3.36758
2.39966
2.10718
2.01805
2.0142
2.06055
2.14026
2.24484
2.36992
2.51317
2.67342
2.84995
3.04178
3.24844
3.46954
3.70486
3.95522
4.22124
4.50365
4.80359
5.12203
5.46001
5.81876
6.19966
6.60423
7.03413
7.49104
7.97678
8.49325
9.04253
9.62681
10.2485
10.91
11.614
12.3632
13.1605
14.0089
14.9115
15.8721
16.8944
17.9812
19.1362
20.3623
21.6615
23.0394
24.5026
26.0582
27.711
29.4661
31.3292
33.3061
35.4035
37.6262
39.98
42.4703
45.103
47.8839
50.8188
53.9134
57.173
60.6031
64.2086
67.9945
71.9651
76.1246
80.4767
85.0246
89.7708
94.7174
99.8658
105.217
110.77
116.525
122.48
128.633
134.979
141.516
148.238
155.14
162.214
169.453
176.849
184.392
192.073
199.881
207.804
215.83
223.947
232.141
240.398
248.704
257.044
265.402
273.762
282.109
290.425
298.696
306.903
315.029
323.06
330.977
338.764
346.406
353.887
361.19
368.302
375.207
381.892
388.342
394.545
400.488
406.16
411.548
416.643
421.434
425.912
430.07
433.9
437.396
440.551
443.361
445.823
447.932
449.687
451.088
452.133
452.824
453.163
453.154
452.809
452.103
451.063
449.695
448.006
446.001
443.689
441.077
438.175
434.993
431.543
427.834
423.879
419.691
415.28
410.661
405.845
400.846
395.678
390.353
384.883
379.283
373.564
367.739
361.821
355.821
349.753
343.627
337.455
331.249
325.021
318.78
312.539
306.308
300.097
293.917
287.78
281.695
275.674
269.727
263.864
258.098
252.441
246.908
241.515
236.281
231.22
226.353
221.623
216.895
9.35712
3.56495
2.49209
2.16158
2.05226
2.03591
2.07183
2.14294
2.24056
2.35946
2.49652
2.64976
2.81775
3.00033
3.19732
3.40876
3.63514
3.87671
4.13401
4.40781
4.69907
5.00886
5.33839
5.68902
6.06228
6.45985
6.88357
7.33538
7.81735
8.3317
8.88085
9.46741
10.0942
10.7646
11.4819
12.2489
13.069
13.9456
14.8823
15.8816
16.9461
18.0823
19.2957
20.592
21.9779
23.4586
25.0402
26.7296
28.5329
30.4567
32.5078
34.6937
37.0206
39.4953
42.1248
44.9158
47.875
51.0089
54.3241
57.8267
61.5224
65.4167
69.5148
73.8213
78.3404
83.0758
88.0305
93.2071
98.6071
104.232
110.081
116.153
122.449
128.964
135.695
142.639
149.789
157.141
164.686
172.417
180.325
188.401
196.633
205.011
213.523
222.155
230.895
239.728
248.64
257.615
266.638
275.692
284.762
293.829
302.878
311.889
320.846
329.731
338.526
347.214
355.776
364.195
372.454
380.537
388.427
396.108
403.564
410.781
417.744
424.44
430.856
436.978
442.794
448.295
453.469
458.307
462.801
466.941
470.722
474.138
477.183
479.853
482.145
484.056
485.586
486.734
487.5
487.887
487.897
487.554
486.82
485.721
484.268
482.468
480.329
477.858
475.063
471.955
468.544
464.842
460.86
456.61
452.106
447.361
442.388
437.201
431.814
426.242
420.497
414.595
408.549
402.372
396.08
389.684
383.198
376.634
370.007
363.327
356.607
349.86
343.097
336.329
329.569
322.826
316.112
309.438
302.815
296.253
289.764
283.358
277.046
270.841
264.754
258.802
252.999
247.361
241.903
236.645
231.53
226.436
10.0008
3.72291
2.55672
2.19222
2.06433
2.03641
2.06404
2.12795
2.21776
2.32845
2.45728
2.60254
2.76339
2.93912
3.12945
3.3344
3.55428
3.78958
4.04097
4.30932
4.59566
4.9012
5.22736
5.57569
5.948
6.34637
6.77332
7.23111
7.72201
8.24873
8.81417
9.42138
10.0733
10.7724
11.521
12.3251
13.1894
14.1189
15.1187
16.1945
17.3527
18.5983
19.9378
21.378
22.9267
24.5908
26.3777
28.295
30.3503
32.5515
34.9066
37.4237
40.1111
42.977
46.0297
49.2766
52.7249
56.3818
60.2537
64.3465
68.6654
73.215
77.9994
83.0221
88.2859
93.7929
99.5443
105.541
111.781
118.265
124.99
131.953
139.149
146.574
154.221
162.085
170.156
178.426
186.886
195.525
204.332
213.294
222.4
231.636
240.987
250.44
259.978
269.587
279.25
288.95
298.671
308.395
318.105
327.782
337.408
346.966
356.436
365.801
375.042
384.141
393.081
401.843
410.411
418.767
426.896
434.781
442.407
449.76
456.825
463.589
470.039
476.164
481.951
487.391
492.473
497.189
501.53
505.49
509.062
512.241
515.024
517.406
519.386
520.961
522.13
522.898
523.263
523.226
522.819
521.993
520.784
519.196
517.239
514.923
512.255
509.243
505.897
502.229
498.251
493.974
489.413
484.579
479.488
474.152
468.588
462.808
456.829
450.665
444.331
437.842
431.212
424.456
417.589
410.623
403.574
396.453
389.275
382.052
374.797
367.523
360.24
352.962
345.699
338.463
331.265
324.116
317.026
310.008
303.071
296.226
289.485
282.86
276.363
270.009
263.812
257.788
251.949
246.315
240.831
235.396
10.5687
3.84712
2.59838
2.20445
2.06077
2.02324
2.04105
2.09626
2.17894
2.28364
2.40719
2.54778
2.70433
2.87624
3.06329
3.26559
3.48356
3.71791
3.96976
4.24024
4.53048
4.84198
5.1765
5.53597
5.92247
6.338
6.78402
7.26333
7.7801
8.33816
8.94149
9.59427
10.3011
11.0672
11.8985
12.7999
13.7774
14.8376
15.9875
17.2347
18.5872
20.0526
21.6392
23.3556
25.2108
27.2136
29.3731
31.6984
34.1985
36.8823
39.7583
42.8336
46.1171
49.6203
53.3543
57.3243
61.5369
65.9992
70.716
75.6911
80.9269
86.4248
92.1859
98.2102
104.497
111.045
117.852
124.914
132.228
139.788
147.589
155.623
163.883
172.362
181.048
189.933
199.006
208.255
217.668
227.233
236.936
246.762
256.699
266.73
276.841
287.016
297.239
307.492
317.761
328.027
338.273
348.481
358.635
368.715
378.705
388.585
398.339
407.947
417.393
426.658
435.726
444.58
453.202
461.578
469.69
477.525
485.068
492.305
499.222
505.808
512.051
517.94
523.463
528.612
533.378
537.753
541.729
545.301
548.465
551.215
553.548
555.463
556.958
558.034
558.683
558.921
558.749
558.171
557.17
555.769
553.974
551.794
549.237
546.315
543.036
539.408
535.444
531.155
526.555
521.657
516.474
511.021
505.312
499.363
493.187
486.801
480.221
473.461
466.537
459.465
452.259
444.935
437.506
429.989
422.395
414.739
407.035
399.295
391.532
383.759
375.988
368.23
360.497
352.801
345.152
337.561
330.04
322.598
315.246
307.996
300.858
293.844
286.967
280.24
273.677
267.293
261.099
255.116
249.289
243.543
11.1152
3.95165
2.62354
2.20276
2.0454
1.99813
2.00936
2.05991
2.13924
2.24177
2.36441
2.50556
2.66399
2.83918
3.03112
3.2401
3.46671
3.71164
3.97539
4.25917
4.5655
4.89674
5.25542
5.64432
6.06659
6.52581
7.02638
7.57262
8.16902
8.82092
9.5342
10.3153
11.1712
12.1097
13.1389
14.267
15.5029
16.8558
18.3358
19.9532
21.7187
23.643
25.737
28.0113
30.4767
33.1435
36.0224
39.1235
42.4559
46.0283
49.8485
53.9241
58.2612
62.8643
67.7361
72.8835
78.3122
84.035
90.049
96.3512
102.936
109.797
116.929
124.325
131.979
139.883
148.029
156.41
165.016
173.837
182.864
192.087
201.494
211.073
220.813
230.702
240.726
250.873
261.13
271.483
281.917
292.419
302.974
313.568
324.185
334.81
345.428
356.024
366.581
377.083
387.516
397.861
408.103
418.226
428.212
438.045
447.709
457.188
466.464
475.522
484.347
492.923
501.235
509.269
517.01
524.444
531.56
538.343
544.783
550.87
556.591
561.939
566.902
571.473
575.645
579.411
582.765
585.702
588.22
590.311
591.98
593.222
594.034
594.429
594.377
593.951
593.063
591.771
590.07
587.969
585.474
582.596
579.345
575.732
571.763
567.451
562.809
557.848
552.582
547.026
541.194
535.1
528.759
522.186
515.397
508.408
501.234
493.891
486.396
478.762
471.006
463.143
455.187
447.153
439.054
430.904
422.716
414.504
406.28
398.056
389.845
381.657
373.504
365.398
357.348
349.366
341.461
333.645
325.927
318.318
310.829
303.472
296.257
289.199
282.31
275.604
269.091
262.795
256.659
250.644
11.6601
4.03665
2.63449
2.19254
2.02552
1.9753
1.98672
2.04
2.1242
2.23351
2.36445
2.51441
2.68337
2.87147
3.07926
3.30769
3.55817
3.83256
4.13348
4.46378
4.8265
5.22541
5.66482
6.14972
6.68583
7.27969
7.93861
8.67033
9.48319
10.3866
11.3908
12.5073
13.7479
15.1253
16.6528
18.344
20.2131
22.2742
24.5414
27.0284
29.7487
32.7155
35.9416
39.437
43.2108
47.2716
51.6277
56.2864
61.2507
66.5224
72.1039
77.9996
84.2051
90.7129
97.5137
104.6
111.964
119.59
127.486
135.66
144.084
152.74
161.611
170.684
179.946
189.385
198.988
208.743
218.638
228.663
238.804
249.051
259.392
269.816
280.312
290.867
301.471
312.112
322.779
333.46
344.144
354.819
365.472
376.092
386.667
397.185
407.633
417.998