/*--------------------------------*- C++ -*----------------------------------*\
| =========                 |                                                 |
| \\      /  F ield         | OpenFOAM: The Open Source CFD Toolbox           |
|  \\    /   O peration     | Version:  4.1                                   |
|   \\  /    A nd           | Web:      www.OpenFOAM.org                      |
|    \\/     M anipulation  |                                                 |
\*---------------------------------------------------------------------------*/
FoamFile
{
    version     2.0;
    format      ascii;
    class       volScalarField;
    location    "298";
    object      k;
}
// * * * * * * * * * * * * * * * * * * * * * * * * * * * * * * * * * * * * * //

dimensions      [0 2 -2 0 0 0 0];

internalField   nonuniform List<scalar> 
12225
(
0.580288
1.01383
1.31598
1.48985
1.57421
1.60333
1.60025
1.58728
1.56462
1.53889
1.51395
1.49033
1.46936
1.44979
1.4337
1.41764
1.40691
1.39192
0.44218
0.50256
0.527838
0.540394
0.547594
0.55149
0.553405
0.555482
0.55857
0.562498
0.568151
0.574591
0.582686
0.591102
0.60075
0.610362
0.620231
0.631323
0.387492
0.419265
0.42632
0.423525
0.41669
0.406299
0.39456
0.383315
0.371971
0.362282
0.352765
0.345486
0.338157
0.333367
0.32807
0.325455
0.321853
0.32089
0.375846
0.384399
0.388021
0.387392
0.385551
0.381468
0.376075
0.370127
0.363716
0.357313
0.350868
0.344693
0.33869
0.333028
0.327721
0.322687
0.318142
0.313739
0.37401
0.374901
0.375831
0.375403
0.374367
0.372282
0.369556
0.366318
0.362837
0.359065
0.35531
0.351355
0.347639
0.343727
0.340218
0.336467
0.333285
0.329757
0.37373
0.372267
0.371497
0.370519
0.369352
0.36781
0.366004
0.363889
0.361665
0.359216
0.356796
0.354198
0.351736
0.349112
0.346714
0.344142
0.341878
0.339409
0.373791
0.371642
0.369946
0.368411
0.366965
0.365455
0.363909
0.362238
0.36054
0.358732
0.356943
0.355062
0.35325
0.35136
0.34958
0.347723
0.346015
0.344221
0.373824
0.371561
0.369556
0.367732
0.366063
0.364454
0.362905
0.361339
0.359798
0.358222
0.356682
0.355104
0.353578
0.352024
0.350538
0.349026
0.347603
0.346144
0.373832
0.371558
0.36945
0.367489
0.365679
0.363971
0.362363
0.360803
0.359302
0.357819
0.356386
0.35496
0.353582
0.352209
0.35089
0.349574
0.34832
0.347062
0.373831
0.371562
0.369424
0.367407
0.365519
0.363738
0.362064
0.360471
0.358957
0.357498
0.356103
0.354747
0.353445
0.352175
0.350955
0.349761
0.348617
0.347493
0.373829
0.371561
0.369416
0.367384
0.365464
0.363647
0.361931
0.360304
0.358762
0.357293
0.355895
0.354556
0.353279
0.35205
0.350875
0.349741
0.348655
0.347606
0.373828
0.371558
0.36941
0.367373
0.365444
0.363613
0.361879
0.360233
0.358671
0.357186
0.355775
0.354431
0.353151
0.35193
0.350764
0.349649
0.348583
0.347563
0.373827
0.371556
0.369404
0.367365
0.365431
0.363596
0.361855
0.3602
0.358629
0.357135
0.355714
0.354362
0.353074
0.351848
0.350679
0.349564
0.348499
0.347484
0.373826
0.371554
0.3694
0.367358
0.365421
0.363583
0.361838
0.36018
0.358604
0.357105
0.355679
0.354322
0.353029
0.351797
0.350623
0.349504
0.348436
0.347417
0.373826
0.371552
0.369397
0.367353
0.365414
0.363574
0.361826
0.360165
0.358586
0.357084
0.355655
0.354294
0.352998
0.351763
0.350585
0.349462
0.348391
0.347369
0.373825
0.371551
0.369395
0.367349
0.365409
0.363566
0.361816
0.360153
0.358572
0.357068
0.355636
0.354273
0.352974
0.351737
0.350557
0.349432
0.348358
0.347334
0.373825
0.371551
0.369393
0.367347
0.365405
0.363561
0.36181
0.360145
0.358563
0.357057
0.355623
0.354259
0.352958
0.351719
0.350537
0.34941
0.348335
0.347309
0.373825
0.37155
0.369393
0.367346
0.365404
0.363559
0.361807
0.360142
0.358558
0.357051
0.355617
0.354251
0.35295
0.35171
0.350527
0.349399
0.348323
0.347296
0.373825
0.371551
0.369393
0.367347
0.365404
0.36356
0.361808
0.360142
0.358558
0.357051
0.355617
0.354251
0.352949
0.351709
0.350526
0.349398
0.348322
0.347295
0.373825
0.371551
0.369394
0.367348
0.365406
0.363562
0.361811
0.360146
0.358562
0.357056
0.355622
0.354256
0.352955
0.351715
0.350533
0.349405
0.348329
0.347303
0.373826
0.371552
0.369396
0.367351
0.365409
0.363567
0.361816
0.360152
0.35857
0.357065
0.355633
0.354269
0.35297
0.351732
0.350552
0.349427
0.348353
0.347328
0.373826
0.371553
0.369398
0.367354
0.365415
0.363575
0.361828
0.360169
0.358593
0.357095
0.35567
0.354314
0.353021
0.351789
0.350613
0.34949
0.348418
0.347392
0.373826
0.371555
0.3694
0.367362
0.365432
0.363608
0.361882
0.360247
0.358695
0.35722
0.355813
0.354471
0.353186
0.351957
0.350776
0.349645
0.348556
0.34751
0.373827
0.371553
0.369412
0.36742
0.365552
0.363806
0.362155
0.360591
0.359091
0.35765
0.356254
0.354904
0.35359
0.352316
0.351074
0.349868
0.348693
0.347554
0.373823
0.371558
0.36958
0.367833
0.366203
0.36468
0.363181
0.361704
0.360211
0.358724
0.357223
0.35573
0.354238
0.352765
0.351296
0.34986
0.348437
0.347055
0.373799
0.371902
0.370807
0.369763
0.368638
0.367449
0.365996
0.364405
0.36263
0.360789
0.35884
0.35688
0.354865
0.352869
0.350859
0.348896
0.346931
0.345032
0.374232
0.374676
0.376473
0.376452
0.375879
0.374649
0.37243
0.369953
0.367103
0.364195
0.36108
0.358005
0.354819
0.351728
0.348594
0.345564
0.342544
0.339651
0.378895
0.390347
0.398465
0.398207
0.396218
0.392663
0.387951
0.383147
0.377878
0.372746
0.367378
0.362233
0.357063
0.352122
0.347359
0.34277
0.338551
0.334382
0.401211
0.430069
0.44045
0.444211
0.447065
0.450284
0.453164
0.455993
0.458391
0.460661
0.462689
0.464547
0.466508
0.468145
0.470299
0.471904
0.47455
0.476118
0.464848
0.644135
0.800195
0.916059
1.0169
1.10105
1.16842
1.22028
1.25835
1.285
1.30215
1.31209
1.31609
1.31518
1.31267
1.30718
1.3001
1.29188
0.00217933
0.00363951
0.00526108
0.00679875
0.00815087
0.00931319
0.0103106
0.0111715
0.0119214
0.0125985
0.013278
0.0139591
0.0146599
0.0153982
0.016184
0.0170195
0.0179009
0.0188261
0.0198052
0.0208845
0.0221761
0.0237914
0.025679
0.0277895
0.0301198
0.0326891
0.0355226
0.0386447
0.0420731
0.0458152
0.049859
0.0541766
0.0587541
0.0635641
0.0685842
0.0737936
0.0791755
0.0847136
0.090395
0.0962106
0.102154
0.108224
0.114425
0.120766
0.127267
0.133958
0.140885
0.148114
0.155567
0.163132
0.170862
0.178738
0.186771
0.19496
0.203308
0.211817
0.220488
0.229323
0.238322
0.247487
0.256816
0.266311
0.27597
0.285791
0.295774
0.305915
0.316212
0.326662
0.33726
0.348003
0.358884
0.369901
0.381044
0.39231
0.403689
0.415176
0.42676
0.438436
0.450193
0.462022
0.473912
0.485855
0.497838
0.509852
0.521883
0.533922
0.545954
0.557968
0.56995
0.581886
0.593763
0.605565
0.617275
0.628877
0.64035
0.651675
0.662829
0.673786
0.684524
0.695025
0.705286
0.715349
0.72525
0.734885
0.744298
0.753462
0.762374
0.771019
0.779388
0.787469
0.795252
0.802728
0.809884
0.816714
0.823207
0.829356
0.835152
0.840589
0.845658
0.850356
0.854675
0.858611
0.862159
0.865317
0.868081
0.870451
0.872422
0.873997
0.875174
0.875952
0.876328
0.876287
0.876007
0.875203
0.874019
0.872352
0.870393
0.868144
0.865471
0.862448
0.859071
0.855353
0.851301
0.846927
0.842243
0.837262
0.831986
0.826427
0.820596
0.814503
0.808159
0.801575
0.794763
0.787733
0.780499
0.773071
0.765463
0.757685
0.749753
0.741677
0.733472
0.725154
0.716739
0.708252
0.699747
0.691519
0.685781
0.682091
0.678566
0.675019
0.671434
0.667805
0.664128
0.660384
0.65654
0.652515
0.648152
0.642989
0.636098
0.611335
0.00539064
0.00838101
0.0119284
0.0148205
0.017262
0.0194193
0.0214007
0.0232834
0.0251263
0.0269757
0.0288758
0.0308998
0.0330948
0.0354861
0.0380808
0.040874
0.0438567
0.0470228
0.050375
0.053926
0.0576914
0.0616862
0.065925
0.0704205
0.0751888
0.0802519
0.085635
0.0913632
0.097457
0.103929
0.110778
0.117988
0.125556
0.133475
0.141741
0.15034
0.159259
0.168491
0.178031
0.187876
0.198022
0.208468
0.219211
0.230252
0.24159
0.253226
0.265158
0.277384
0.289893
0.302683
0.315764
0.329138
0.342812
0.35679
0.371075
0.385673
0.400588
0.415823
0.431382
0.447268
0.463484
0.480032
0.496912
0.514127
0.531676
0.549557
0.567771
0.586313
0.605182
0.624374
0.643883
0.663703
0.683828
0.70425
0.724961
0.745951
0.767208
0.788723
0.810482
0.832471
0.854676
0.877083
0.899674
0.922432
0.94534
0.968377
0.991525
1.01476
1.03807
1.06142
1.08479
1.10815
1.13149
1.15477
1.17797
1.20104
1.22397
1.24669
1.26919
1.29139
1.31325
1.33468
1.35567
1.37637
1.39674
1.41677
1.43643
1.45571
1.47457
1.49301
1.51098
1.52847
1.54547
1.56194
1.57786
1.59323
1.60801
1.6222
1.63577
1.64871
1.661
1.67262
1.68358
1.69385
1.70342
1.71228
1.72044
1.72787
1.73458
1.74056
1.74582
1.75035
1.75417
1.75725
1.75957
1.76096
1.76165
1.76186
1.76128
1.75998
1.75798
1.75529
1.75192
1.74788
1.7432
1.73789
1.73196
1.72542
1.7183
1.71062
1.70238
1.69361
1.68433
1.67455
1.6643
1.65359
1.64246
1.63092
1.61899
1.60669
1.59406
1.58112
1.56788
1.55439
1.54069
1.52688
1.51341
1.5002
1.4869
1.47348
1.45996
1.44635
1.43266
1.41889
1.40502
1.39101
1.37668
1.36193
1.34528
1.31034
0.00910555
0.0137073
0.0185239
0.0222962
0.0254903
0.028374
0.0311037
0.0337866
0.0365056
0.0393306
0.0423215
0.0455284
0.0489865
0.0527152
0.0567193
0.0609939
0.0655294
0.070317
0.0753518
0.080636
0.0861798
0.0919969
0.098099
0.1045
0.111216
0.118269
0.125682
0.133473
0.141658
0.15025
0.159263
0.168713
0.178607
0.188947
0.199733
0.210954
0.222598
0.234661
0.247136
0.260017
0.273296
0.286968
0.301025
0.315463
0.330277
0.345461
0.361013
0.376927
0.393202
0.40984
0.426845
0.444221
0.461972
0.480101
0.498614
0.517513
0.536802
0.556485
0.576565
0.597044
0.617923
0.639204
0.660888
0.682974
0.705461
0.728347
0.751629
0.775303
0.799366
0.82381
0.84863
0.873817
0.899363
0.925258
0.951491
0.97805
1.00492
1.03209
1.05954
1.08726
1.11522
1.14342
1.17182
1.20042
1.22918
1.25808
1.2871
1.31621
1.34539
1.37461
1.40384
1.43305
1.46221
1.49129
1.52025
1.54906
1.57769
1.6061
1.63426
1.66213
1.68968
1.71689
1.74374
1.77022
1.79629
1.82193
1.8471
1.87177
1.89592
1.9195
1.9425
1.96487
1.98661
2.00767
2.02803
2.04766
2.06655
2.08467
2.10199
2.11849
2.13416
2.14898
2.16293
2.176
2.18816
2.19942
2.20976
2.21916
2.22764
2.23518
2.24178
2.24744
2.25217
2.25594
2.25876
2.26047
2.26123
2.26128
2.26034
2.25849
2.25573
2.25209
2.24757
2.24221
2.23601
2.22899
2.22118
2.21259
2.20326
2.19319
2.18241
2.17096
2.15884
2.14609
2.13274
2.11881
2.10432
2.08931
2.0738
2.05784
2.04143
2.02463
2.00746
1.98997
1.9722
1.95425
1.93637
1.91853
1.90059
1.88252
1.86433
1.84607
1.82774
1.80937
1.79098
1.77258
1.75411
1.73559
1.71558
1.68459
0.0123648
0.0193307
0.025374
0.0299584
0.0338266
0.037342
0.0407056
0.0440503
0.0474754
0.0510601
0.0548676
0.0589448
0.0633222
0.068014
0.073021
0.078335
0.0839439
0.0898368
0.0960071
0.102455
0.109185
0.116208
0.123541
0.131205
0.139225
0.14763
0.156448
0.165705
0.175425
0.185628
0.196328
0.207534
0.219247
0.231464
0.244175
0.257374
0.271058
0.28522
0.299849
0.314938
0.330477
0.346459
0.362876
0.379722
0.396993
0.414683
0.432792
0.451315
0.470255
0.489613
0.509393
0.5296
0.550238
0.571311
0.592824
0.614782
0.637188
0.660047
0.68336
0.707133
0.731365
0.75606
0.781218
0.806839
0.832922
0.859465
0.886465
0.913919
0.941821
0.970166
0.998946
1.02815
1.05778
1.08781
1.11823
1.14904
1.18021
1.21173
1.24358
1.27575
1.30821
1.34094
1.37392
1.40712
1.44052
1.47409
1.5078
1.54163
1.57555
1.60951
1.64349
1.67746
1.71138
1.74521
1.77892
1.81248
1.84584
1.87897
1.91183
1.9444
1.97663
2.00849
2.03995
2.07097
2.10152
2.13154
2.16102
2.1899
2.21816
2.24576
2.27265
2.29882
2.32421
2.34881
2.37258
2.39548
2.4175
2.4386
2.45876
2.47795
2.49614
2.51333
2.52948
2.54459
2.55863
2.57159
2.58346
2.59423
2.60389
2.61245
2.61989
2.62621
2.63143
2.63552
2.63847
2.64016
2.64078
2.64044
2.63898
2.63644
2.63283
2.62818
2.62251
2.61583
2.60817
2.59956
2.59001
2.57955
2.56821
2.55602
2.543
2.52919
2.51461
2.49928
2.48326
2.46655
2.44921
2.43126
2.41273
2.39367
2.37411
2.35409
2.33364
2.31283
2.29169
2.27034
2.24891
2.22741
2.2058
2.18406
2.16222
2.14031
2.11838
2.09647
2.07464
2.05296
2.03146
2.01023
1.98807
1.95911
0.0149576
0.0249522
0.0322709
0.0377022
0.0422614
0.0463967
0.0503523
0.0542856
0.0583107
0.0625145
0.0669628
0.0717022
0.0767607
0.0821501
0.0878695
0.0939097
0.100259
0.106909
0.113854
0.121098
0.128652
0.136533
0.144765
0.153377
0.162399
0.171861
0.181793
0.192221
0.203163
0.214636
0.22665
0.239207
0.252308
0.265948
0.280122
0.294826
0.310052
0.325792
0.342038
0.358781
0.376014
0.39373
0.411923
0.430589
0.449724
0.469325
0.489393
0.509926
0.530929
0.552405
0.574357
0.596792
0.619713
0.643127
0.667038
0.691453
0.716375
0.741811
0.767763
0.794237
0.821234
0.848758
0.87681
0.905391
0.9345
0.964137
0.994299
1.02498
1.05618
1.0879
1.12011
1.15283
1.18602
1.2197
1.25383
1.28841
1.32341
1.35883
1.39465
1.43083
1.46736
1.50422
1.54137
1.5788
1.61647
1.65434
1.6924
1.7306
1.76891
1.8073
1.84572
1.88415
1.92253
1.96083
1.99901
2.03703
2.07484
2.11241
2.1497
2.18666
2.22324
2.25942
2.29513
2.33033
2.365
2.39907
2.4325
2.46526
2.4973
2.52857
2.55904
2.58867
2.61741
2.64524
2.67211
2.69798
2.72284
2.74664
2.76935
2.79095
2.8114
2.8307
2.84881
2.86571
2.88138
2.89582
2.90901
2.92093
2.93159
2.94096
2.94906
2.95589
2.96144
2.9657
2.96866
2.9702
2.97058
2.96976
2.96769
2.96439
2.95987
2.95417
2.94731
2.9393
2.93018
2.91998
2.90872
2.89643
2.88314
2.8689
2.85371
2.83763
2.82069
2.80291
2.78435
2.76502
2.74498
2.72426
2.7029
2.68095
2.65843
2.63541
2.61192
2.58802
2.56378
2.53926
2.51459
2.48979
2.46485
2.43979
2.41465
2.38946
2.3643
2.33923
2.31434
2.28976
2.26559
2.24196
2.21785
2.18916
0.0169554
0.0302764
0.0389534
0.0452666
0.0505256
0.0552657
0.0597727
0.0642271
0.068756
0.0734539
0.0783906
0.0836147
0.0891555
0.0950269
0.101231
0.107762
0.114614
0.121784
0.129274
0.137093
0.145259
0.153794
0.162726
0.172086
0.181903
0.192205
0.203018
0.214364
0.226257
0.238708
0.251725
0.26531
0.279461
0.294177
0.309453
0.325285
0.341667
0.358592
0.376055
0.394049
0.412571
0.431616
0.45118
0.471262
0.491861
0.512976
0.534609
0.556763
0.579441
0.602648
0.626389
0.65067
0.675498
0.700878
0.726817
0.753323
0.780401
0.808058
0.836299
0.865129
0.894553
0.924574
0.955196
0.986421
1.01825
1.05068
1.08371
1.11735
1.15157
1.18639
1.22179
1.25777
1.29431
1.3314
1.36903
1.40718
1.44583
1.48497
1.52458
1.56462
1.60507
1.64592
1.68712
1.72864
1.77046
1.81254
1.85484
1.89733
1.93995
1.98269
2.02548
2.06829
2.11107
2.15378
2.19637
2.23879
2.281
2.32294
2.36457
2.40584
2.44669
2.48708
2.52694
2.56624
2.60492
2.64294
2.68023
2.71676
2.75247
2.78732
2.82126
2.85425
2.88623
2.91718
2.94704
2.97578
3.00335
3.02974
3.05489
3.07879
3.1014
3.12269
3.14263
3.16122
3.17842
3.19423
3.20862
3.22159
3.23312
3.24322
3.25188
3.2591
3.26489
3.26923
3.2721
3.27342
3.27346
3.27209
3.26934
3.26521
3.25972
3.25291
3.24481
3.23543
3.22481
3.21298
3.19998
3.18585
3.1706
3.15429
3.13695
3.11861
3.09932
3.07912
3.05805
3.03615
3.01346
2.99003
2.9659
2.94112
2.91573
2.8898
2.86336
2.83648
2.80921
2.78165
2.75387
2.72592
2.69782
2.66961
2.64133
2.61304
2.58482
2.55677
2.52901
2.5017
2.47498
2.44902
2.42289
2.39334
0.018461
0.0352085
0.0452023
0.0523806
0.058319
0.0636311
0.0686404
0.0735477
0.0784924
0.0835771
0.088877
0.0944454
0.100317
0.106511
0.113036
0.119896
0.127091
0.134626
0.142509
0.150756
0.159387
0.168426
0.177902
0.187842
0.198274
0.209221
0.220704
0.232741
0.245343
0.25852
0.272278
0.286617
0.301541
0.317046
0.333132
0.349795
0.367033
0.384843
0.403221
0.422166
0.441676
0.461749
0.482385
0.503586
0.525352
0.547686
0.570592
0.594074
0.618137
0.642789
0.668034
0.693882
0.72034
0.747416
0.775118
0.803455
0.832435
0.862065
0.892353
0.923306
0.95493
0.987231
1.02021
1.05388
1.08823
1.12328
1.15901
1.19542
1.23253
1.27031
1.30876
1.34787
1.38764
1.42804
1.46907
1.51071
1.55294
1.59573
1.63906
1.68292
1.72725
1.77205
1.81727
1.86287
1.90883
1.9551
2.00164
2.04841
2.09536
2.14244
2.18961
2.23682
2.28401
2.33114
2.37814
2.42497
2.47158
2.51789
2.56386
2.60942
2.65453
2.69911
2.74312
2.78649
2.82916
2.87109
2.91222
2.95249
2.99184
3.03022
3.06759
3.10389
3.13906
3.17307
3.20587
3.23741
3.26765
3.29656
3.32409
3.35021
3.37489
3.3981
3.41982
3.44001
3.45866
3.47575
3.49126
3.50519
3.51753
3.52826
3.53739
3.54493
3.55087
3.55521
3.5579
3.55896
3.55855
3.55658
3.55307
3.54804
3.54153
3.53355
3.52415
3.51334
3.50118
3.48769
3.47291
3.45689
3.43966
3.42126
3.40174
3.38114
3.3595
3.33687
3.3133
3.28883
3.26351
3.23739
3.21052
3.18295
3.15473
3.12593
3.09659
3.06678
3.03656
3.00601
2.97521
2.94421
2.91306
2.8818
2.85049
2.8192
2.78804
2.75712
2.72658
2.69661
2.66739
2.63906
2.61078
2.57969
0.0196363
0.0396152
0.0508281
0.0588139
0.0653801
0.0712113
0.0766639
0.0819569
0.0872409
0.092626
0.0981944
0.104006
0.110102
0.11651
0.123248
0.130326
0.137756
0.145547
0.153714
0.162274
0.17125
0.180666
0.190545
0.200914
0.211795
0.223209
0.235172
0.247699
0.260801
0.274487
0.288761
0.303628
0.319091
0.33515
0.351808
0.369063
0.386917
0.40537
0.424423
0.444076
0.464332
0.485193
0.506661
0.52874
0.551435
0.57475
0.598693
0.62327
0.648489
0.674357
0.700884
0.728079
0.755953
0.784515
0.813776
0.843747
0.874437
0.905857
0.938016
0.970924
1.00459
1.03902
1.07422
1.11019
1.14695
1.18448
1.2228
1.26191
1.30179
1.34245
1.38389
1.42608
1.46902
1.51269
1.55709
1.60218
1.64796
1.69439
1.74145
1.7891
1.83733
1.88608
1.93533
1.98504
2.03516
2.08564
2.13644
2.18752
2.23881
2.29028
2.34185
2.39348
2.44511
2.49667
2.54811
2.59936
2.65036
2.70105
2.75136
2.80122
2.85057
2.89934
2.94747
2.99489
3.04154
3.08736
3.13228
3.17625
3.2192
3.26107
3.30182
3.34137
3.37968
3.41669
3.45236
3.48663
3.51947
3.55082
3.58066
3.60893
3.6356
3.66065
3.68405
3.70576
3.72577
3.74406
3.76061
3.77541
3.78845
3.79974
3.80926
3.81702
3.82302
3.82729
3.82973
3.83046
3.82952
3.82687
3.82254
3.81655
3.80894
3.79974
3.78898
3.7767
3.76295
3.74775
3.73116
3.71323
3.69398
3.67348
3.65176
3.62889
3.6049
3.57984
3.55378
3.52676
3.49882
3.47004
3.44046
3.41014
3.37914
3.34751
3.31532
3.28264
3.24952
3.21605
3.1823
3.14834
3.11421
3.07999
3.04575
3.01157
2.97755
2.94384
2.9106
2.87802
2.8463
2.81557
2.78503
2.75233
0.0217775
0.0436125
0.0557897
0.0644437
0.0715377
0.0778076
0.0836324
0.0892439
0.0948007
0.100419
0.106188
0.112172
0.118422
0.124973
0.13185
0.139073
0.14666
0.154625
0.162988
0.171766
0.180981
0.190656
0.200811
0.211469
0.22265
0.23437
0.246645
0.259489
0.27291
0.286919
0.301521
0.316724
0.332533
0.348951
0.365983
0.383634
0.401906
0.420804
0.440332
0.460496
0.481299
0.502748
0.52485
0.54761
0.571038
0.595141
0.619928
0.64541
0.671596
0.698498
0.726127
0.754495
0.783615
0.8135
0.844163
0.875618
0.907875
0.94095
0.974852
1.00959
1.04519
1.08164
1.11896
1.15716
1.19623
1.2362
1.27705
1.31879
1.36141
1.40492
1.4493
1.49455
1.54065
1.58758
1.63534
1.6839
1.73323
1.78331
1.83411
1.88559
1.93772
1.99046
2.04377
2.09759
2.15189
2.20661
2.2617
2.31711
2.37276
2.42862
2.48461
2.54066
2.59672
2.65271
2.70857
2.76423
2.81961
2.87464
2.92926
2.98337
3.03692
3.08983
3.14202
3.19343
3.24399
3.29362
3.34227
3.38985
3.43632
3.48159
3.52561
3.56833
3.60967
3.64958
3.68801
3.72491
3.76023
3.79392
3.82593
3.85624
3.88479
3.91157
3.93653
3.95965
3.9809
4.00028
4.01775
4.03331
4.04696
4.05868
4.06849
4.07638
4.08236
4.08644
4.08858
4.08888
4.08733
4.08392
4.0787
4.07169
4.06293
4.05245
4.04029
4.0265
4.01112
3.99419
3.97577
3.9559
3.93463
3.91202
3.88812
3.86297
3.83665
3.80919
3.78066
3.75111
3.72061
3.68921
3.65697
3.62395
3.59022
3.55584
3.52087
3.48538
3.44944
3.41313
3.37652
3.33969
3.3027
3.26562
3.22854
3.19156
3.15479
3.11837
3.08249
3.04736
3.01315
2.97999
2.94714
2.91267
0.0246115
0.0471076
0.0599953
0.0691665
0.0766764
0.0832965
0.0894194
0.095285
0.101057
0.106856
0.112774
0.118883
0.125239
0.131884
0.138851
0.146165
0.153848
0.161921
0.170403
0.179314
0.188673
0.198501
0.208816
0.219639
0.230985
0.242873
0.255315
0.268325
0.281913
0.296089
0.310864
0.326244
0.342239
0.358855
0.376101
0.393983
0.41251
0.431689
0.451528
0.472037
0.493225
0.5151
0.537674
0.560956
0.584958
0.609692
0.635171
0.661407
0.688414
0.716207
0.744801
0.77421
0.804451
0.83554
0.867493
0.900326
0.934054
0.968693
1.00426
1.04076
1.07822
1.11664
1.15603
1.19641
1.23778
1.28014
1.32351
1.36787
1.41323
1.45958
1.50692
1.55524
1.60451
1.65473
1.70587
1.75792
1.81083
1.86459
1.91915
1.97448
2.03054
2.08728
2.14466
2.20262
2.26111
2.32007
2.37944
2.43916
2.49916
2.55938
2.61974
2.68018
2.74062
2.80099
2.8612
2.92119
2.98086
3.04015
3.09896
3.15723
3.21486
3.27178
3.32791
3.38318
3.4375
3.4908
3.54302
3.59407
3.64388
3.69239
3.73953
3.78523
3.82943
3.87207
3.91309
3.95244
3.99007
4.02592
4.05995
4.09211
4.12238
4.15071
4.17707
4.20144
4.22379
4.24409
4.26234
4.27853
4.29264
4.30468
4.31464
4.32254
4.32838
4.33218
4.33392
4.33369
4.33145
4.32722
4.32104
4.31295
4.30298
4.29118
4.27759
4.26225
4.24522
4.22655
4.20629
4.18449
4.16121
4.13651
4.11044
4.08307
4.05445
4.02464
3.9937
3.96169
3.92869
3.89474
3.85993
3.8243
3.78793
3.75088
3.71323
3.67504
3.63638
3.59734
3.558
3.51842
3.47869
3.43888
3.39909
3.35943
3.32001
3.281
3.24258
3.20494
3.16829
3.13272
3.09755
3.06113
0.0272718
0.0499272
0.0633429
0.072908
0.0807352
0.0876233
0.0939745
0.100034
0.10597
0.111904
0.117933
0.124131
0.130558
0.137261
0.144278
0.151639
0.15937
0.167492
0.176026
0.184992
0.19441
0.204299
0.214676
0.225558
0.236962
0.248901
0.261391
0.274444
0.288072
0.302289
0.317104
0.332531
0.348579
0.36526
0.382586
0.400567
0.419216
0.438545
0.458567
0.479293
0.500738
0.522914
0.545835
0.569517
0.593975
0.619224
0.645282
0.672167
0.699895
0.728483
0.757951
0.788319
0.819605
0.851831
0.885014
0.919175
0.954331
0.990501
1.0277
1.06595
1.10526
1.14565
1.18712
1.22969
1.27337
1.31816
1.36407
1.41109
1.45923
1.50847
1.55881
1.61024
1.66273
1.71628
1.77085
1.82642
1.88295
1.94042
1.99877
2.05797
2.11796
2.17871
2.24015
2.30222
2.36487
2.42803
2.49162
2.55559
2.61986
2.68436
2.749
2.8137
2.8784
2.94299
3.00741
3.07155
3.13535
3.1987
3.26152
3.32373
3.38523
3.44595
3.50579
3.56468
3.62252
3.67925
3.73478
3.78904
3.84195
3.89343
3.94342
3.99185
4.03865
4.08376
4.12711
4.16866
4.20833
4.24609
4.28189
4.31568
4.34742
4.37708
4.40463
4.43003
4.45326
4.4743
4.49314
4.50976
4.52417
4.53635
4.54632
4.55409
4.55966
4.56305
4.56429
4.56344
4.56043
4.55528
4.54807
4.53884
4.52762
4.51446
4.49942
4.48253
4.46385
4.44345
4.42137
4.39767
4.37242
4.34568
4.31751
4.28797
4.25713
4.22505
4.19179
4.15743
4.12203
4.08566
4.04838
4.01027
3.97139
3.93181
3.89162
3.85087
3.80965
3.76803
3.7261
3.68394
3.64163
3.59925
3.55691
3.51471
3.47279
3.43132
3.39046
3.35043
3.31141
3.2735
3.23603
3.19764
0.0296618
0.0520574
0.0658272
0.0756705
0.0837221
0.0908001
0.097313
0.10351
0.109561
0.11559
0.121693
0.127948
0.134416
0.141147
0.148181
0.155551
0.163285
0.171408
0.179941
0.188903
0.198312
0.208186
0.218541
0.229393
0.240758
0.25265
0.265084
0.278076
0.29164
0.305791
0.320543
0.335911
0.35191
0.368554
0.38586
0.403844
0.42252
0.441907
0.46202
0.482878
0.504497
0.526896
0.550091
0.574102
0.598947
0.624649
0.65123
0.678711
0.707114
0.736461
0.766777
0.798084
0.830407
0.863769
0.898193
0.933702
0.970316
1.00806
1.04694
1.08699
1.12822
1.17064
1.21427
1.25912
1.30519
1.3525
1.40104
1.45081
1.50181
1.55403
1.60746
1.66208
1.71787
1.77481
1.83287
1.89201
1.9522
2.01339
2.07554
2.1386
2.20252
2.26723
2.33267
2.39879
2.4655
2.53274
2.60044
2.66851
2.73688
2.80546
2.87418
2.94293
3.01164
3.08021
3.14856
3.21658
3.2842
3.3513
3.41781
3.48363
3.54867
3.61283
3.67602
3.73816
3.79917
3.85895
3.91742
3.97451
4.03014
4.08422
4.13669
4.18747
4.2365
4.28371
4.32903
4.37241
4.4138
4.45313
4.49037
4.52546
4.55837
4.58906
4.6175
4.64365
4.6675
4.68903
4.70822
4.72506
4.73955
4.75169
4.76148
4.76895
4.7741
4.77696
4.77755
4.77599
4.77209
4.76596
4.75766
4.74724
4.73474
4.72021
4.7037
4.68527
4.66497
4.64286
4.61901
4.59348
4.56634
4.53764
4.50746
4.47586
4.44292
4.4087
4.37327
4.33669
4.29905
4.26041
4.22083
4.18041
4.1392
4.09728
4.05473
4.01161
3.96802
3.92402
3.87971
3.83516
3.79046
3.74571
3.70101
3.65647
3.61224
3.56847
3.52534
3.48306
3.44178
3.40163
3.36198
3.32169
0.0317583
0.0535373
0.0674989
0.0775109
0.0856978
0.0928894
0.0994988
0.105778
0.111896
0.117978
0.124121
0.130401
0.136883
0.143615
0.15064
0.157991
0.165696
0.173779
0.182261
0.191162
0.200499
0.21029
0.220552
0.2313
0.242551
0.254318
0.266618
0.27947
0.292892
0.306901
0.321515
0.336755
0.352637
0.369182
0.38641
0.404341
0.422996
0.442398
0.462567
0.483527
0.5053
0.527908
0.551371
0.57571
0.600944
0.627104
0.65422
0.68232
0.711432
0.741584
0.772805
0.805123
0.838566
0.873162
0.908937
0.945913
0.984116
1.02357
1.06428
1.10629
1.14959
1.19422
1.24017
1.28746
1.3361
1.38609
1.43743
1.49011
1.54412
1.59946
1.65611
1.71404
1.77322
1.83364
1.89524
1.958
2.02186
2.08678
2.1527
2.21956
2.28731
2.35588
2.4252
2.49519
2.56578
2.63689
2.70844
2.78034
2.85252
2.92487
2.9973
3.06974
3.14207
3.21422
3.28607
3.35753
3.42851
3.4989
3.56862
3.63755
3.70561
3.77271
3.83874
3.90362
3.96726
4.02956
4.09046
4.14986
4.20768
4.26385
4.31829
4.37092
4.42169
4.47051
4.51734
4.5621
4.60474
4.64521
4.68346
4.71945
4.75314
4.78448
4.81345
4.84003
4.86418
4.88588
4.90514
4.92193
4.93625
4.94811
4.95752
4.9645
4.96905
4.97122
4.97107
4.96869
4.96379
4.9566
4.94716
4.93552
4.92172
4.90582
4.88787
4.86793
4.84606
4.82232
4.79678
4.76952
4.74058
4.71006
4.67801
4.64451
4.60963
4.57344
4.53602
4.49743
4.45774
4.41704
4.3754
4.33288
4.28957
4.24554
4.20087
4.15564
4.10991
4.06379
4.01734
3.97066
3.92383
3.87695
3.83013
3.78349
3.73716
3.69131
3.64611
3.60175
3.5584
3.51616
3.47448
3.43245
0.0335653
0.0544313
0.0684364
0.0785154
0.0867526
0.0939837
0.100625
0.106929
0.113066
0.119162
0.125313
0.131594
0.138066
0.144777
0.151766
0.159065
0.166704
0.174706
0.183093
0.191885
0.2011
0.210756
0.220873
0.231468
0.242564
0.254188
0.266344
0.27905
0.292325
0.306191
0.320668
0.33578
0.351549
0.367999
0.385155
0.403041
0.421682
0.441108
0.461347
0.482429
0.50438
0.527226
0.550995
0.575717
0.601418
0.628137
0.65591
0.684768
0.714744
0.74587
0.778183
0.811715
0.846501
0.882568
0.919946
0.958657
0.998726
1.04017
1.08301
1.12727
1.17295
1.22007
1.26864
1.31867
1.37015
1.42308
1.47746
1.53329
1.59053
1.64917
1.7092
1.77057
1.83325
1.89721
1.96239
2.02876
2.09626
2.16482
2.23439
2.30491
2.37629
2.44848
2.52139
2.59495
2.66906
2.74366
2.81864
2.89392
2.96941
3.04501
3.12064
3.19618
3.27156
3.34665
3.42138
3.49563
3.5693
3.64231
3.71454
3.7859
3.85629
3.92561
3.99377
4.06068
4.12625
4.19039
4.25301
4.31403
4.37337
4.43096
4.48671
4.54056
4.59243
4.64227
4.69
4.73556
4.7789
4.81998
4.85873
4.89512
4.92911
4.96065
4.98974
5.01632
5.04039
5.06192
5.08091
5.09735
5.11122
5.12255
5.13135
5.13762
5.1414
5.14272
5.14175
5.13836
5.1324
5.12409
5.11347
5.1006
5.08551
5.06826
5.04892
5.02754
5.00419
4.97893
4.95184
4.92298
4.89243
4.86025
4.82653
4.79133
4.75473
4.71681
4.67763
4.63727
4.59581
4.55332
4.50988
4.46556
4.42045
4.3746
4.32811
4.28106
4.23351
4.18556
4.13729
4.08877
4.04012
3.99141
3.94277
3.89431
3.84616
3.79849
3.75147
3.70527
3.66006
3.61596
3.57245
3.52888
0.0350934
0.0547989
0.0687103
0.0787662
0.0869782
0.094181
0.100795
0.107075
0.113189
0.119262
0.125387
0.131638
0.138074
0.144746
0.151688
0.158931
0.166501
0.174422
0.182716
0.191402
0.200501
0.21003
0.22001
0.230457
0.241389
0.252819
0.264771
0.277274
0.290355
0.30404
0.318356
0.333332
0.348999
0.365388
0.38253
0.400458
0.419205
0.4388
0.459278
0.480675
0.503028
0.526363
0.550708
0.57608
0.602529
0.630104
0.658842
0.688785
0.719971
0.752439
0.78623
0.821389
0.857952
0.895946
0.935399
0.976333
1.01876
1.0627
1.10817
1.15516
1.2037
1.25378
1.30542
1.35859
1.41331
1.46956
1.52731
1.58656
1.64728
1.70943
1.77298
1.83789
1.90411
1.9716
2.04029
2.11015
2.18109
2.25306
2.32599
2.3998
2.47442
2.54977
2.62576
2.70232
2.77936
2.85679
2.93452
3.01246
3.09051
3.16857
3.24656
3.32438
3.40192
3.47909
3.55579
3.63191
3.70736
3.78205
3.85586
3.9287
4.00048
4.0711
4.14047
4.20849
4.27508
4.34015
4.40361
4.46539
4.5254
4.58358
4.63983
4.69411
4.74632
4.79642
4.84434
4.89002
4.9334
4.97444
5.01309
5.0493
5.08304
5.11427
5.14298
5.16912
5.19268
5.21364
5.232
5.24775
5.26088
5.2714
5.27934
5.2847
5.28752
5.28786
5.28597
5.28142
5.27435
5.26489
5.25309
5.239
5.22266
5.20414
5.1835
5.1608
5.13611
5.10949
5.08102
5.05077
5.01881
4.98522
4.95008
4.91345
4.87541
4.83604
4.79542
4.75361
4.7107
4.66676
4.62187
4.5761
4.52953
4.48224
4.4343
4.38579
4.33679
4.28738
4.23765
4.18768
4.13755
4.08738
4.03726
3.98732
3.93769
3.88852
3.83997
3.79224
3.74544
3.69975
3.65467
3.60984
0.0364145
0.0548003
0.0685672
0.078547
0.0866845
0.0938159
0.100364
0.106581
0.112639
0.118659
0.124734
0.130933
0.137311
0.143912
0.15077
0.157915
0.165371
0.173161
0.181309
0.189836
0.198765
0.208116
0.217911
0.228174
0.238929
0.250203
0.262029
0.274431
0.287442
0.30109
0.31541
0.330437
0.346207
0.362762
0.380149
0.398402
0.417557
0.43765
0.458717
0.48078
0.50385
0.528005
0.553306
0.579817
0.607585
0.636644
0.667032
0.698787
0.731949
0.766555
0.802637
0.840221
0.879344
0.920057
0.962398
1.00637
1.05198
1.09921
1.14806
1.19853
1.25062
1.30431
1.3596
1.41646
1.47489
1.53484
1.5963
1.65923
1.72359
1.78933
1.8564
1.92477
1.99436
2.06513
2.137
2.20992
2.28382
2.35863
2.43427
2.51066
2.58774
2.66541
2.7436
2.82222
2.90119
2.98041
3.05981
3.13929
3.21875
3.29812
3.37728
3.45616
3.53465
3.61266
3.6901
3.76686
3.84285
3.91797
3.99214
4.06525
4.13722
4.20795
4.27735
4.34533
4.41181
4.4767
4.53993
4.60141
4.66107
4.71884
4.77464
4.82841
4.88008
4.92958
4.97687
5.02186
5.06453
5.10481
5.14267
5.17806
5.21095
5.2413
5.26909
5.2943
5.3169
5.33688
5.35423
5.36894
5.38102
5.39047
5.39731
5.40156
5.40324
5.40259
5.39958
5.39382
5.38562
5.37501
5.36206
5.34682
5.32933
5.30967
5.28788
5.26403
5.23819
5.21044
5.18084
5.14946
5.11639
5.08169
5.04545
5.00773
4.96861
4.92817
4.88648
4.84362
4.79967
4.75469
4.70876
4.66197
4.61438
4.56607
4.51711
4.46759
4.41758
4.36715
4.3164
4.2654
4.21424
4.16302
4.11184
4.06082
4.01009
3.9598
3.9101
3.86117
3.81313
3.76616
3.71983
3.67405
0.0376652
0.0546403
0.0681149
0.0779094
0.0858784
0.0928528
0.0992572
0.105346
0.111288
0.117204
0.12318
0.129283
0.135563
0.142059
0.148808
0.155837
0.163178
0.170856
0.178893
0.187313
0.196141
0.205404
0.21513
0.225348
0.236088
0.247383
0.25927
0.27179
0.284996
0.298916
0.31359
0.329061