/*--------------------------------*- C++ -*----------------------------------*\
| =========                 |                                                 |
| \\      /  F ield         | OpenFOAM: The Open Source CFD Toolbox           |
|  \\    /   O peration     | Version:  4.1                                   |
|   \\  /    A nd           | Web:      www.OpenFOAM.org                      |
|    \\/     M anipulation  |                                                 |
\*---------------------------------------------------------------------------*/
FoamFile
{
    version     2.0;
    format      ascii;
    class       volScalarField;
    location    "298";
    object      nut;
}
// * * * * * * * * * * * * * * * * * * * * * * * * * * * * * * * * * * * * * //

dimensions      [0 2 -1 0 0 0 0];

internalField   nonuniform List<scalar> 
12225
(
2.68176e-05
3.54259e-05
4.03683e-05
4.29509e-05
4.41503e-05
4.45571e-05
4.4546e-05
4.43065e-05
4.4022e-05
4.36538e-05
4.32973e-05
4.29577e-05
4.26543e-05
4.23693e-05
4.21335e-05
4.1897e-05
4.17376e-05
4.15161e-05
0.000212637
8.32995e-05
5.47241e-05
4.31733e-05
3.76053e-05
3.47177e-05
3.32702e-05
3.25603e-05
3.23573e-05
3.24547e-05
3.27925e-05
3.3261e-05
3.38752e-05
3.45329e-05
3.52958e-05
3.60475e-05
3.68696e-05
3.76981e-05
0.00067269
0.000310875
0.000195701
0.000143027
0.00011384
9.49254e-05
8.23672e-05
7.35818e-05
6.70073e-05
6.21367e-05
5.8173e-05
5.52188e-05
5.26143e-05
5.0759e-05
4.89692e-05
4.77843e-05
4.66524e-05
4.55008e-05
0.000875638
0.000622529
0.000467571
0.000363424
0.000300145
0.000255936
0.000225161
0.000202066
0.000184904
0.000171058
0.000160336
0.000151177
0.000143898
0.000137358
0.000132168
0.000127173
0.0001236
0.000118868
0.000881106
0.000787927
0.000712963
0.000617695
0.00054391
0.000484058
0.000438395
0.000401096
0.000372389
0.000347813
0.00032878
0.000311518
0.000298373
0.000285543
0.000276234
0.000266151
0.000259705
0.000251107
0.000864178
0.000837728
0.000818745
0.000774958
0.000728398
0.000681679
0.000640653
0.00060303
0.000571787
0.000543062
0.000519897
0.000497802
0.000480658
0.00046318
0.000450559
0.000436182
0.000427253
0.000414408
0.000854472
0.000852062
0.000844945
0.000833279
0.00081724
0.000794239
0.000770903
0.0007462
0.000723513
0.000700673
0.000681004
0.000661086
0.000644871
0.000627711
0.000614784
0.000599799
0.000589989
0.000576313
0.000852234
0.000852216
0.000850458
0.000847136
0.000840843
0.000831974
0.000821453
0.00080821
0.000794781
0.000780256
0.000766948
0.000752681
0.000740452
0.000727122
0.000716489
0.000704205
0.000695415
0.000683778
0.000851801
0.000851652
0.000851177
0.00085028
0.000848411
0.000845175
0.000840908
0.00083527
0.000828309
0.00082092
0.000813226
0.000804606
0.00079673
0.000787892
0.000780356
0.000771792
0.000764785
0.000756428
0.00085177
0.000851405
0.000851079
0.000850689
0.000850163
0.000849193
0.000847826
0.000845875
0.000843378
0.000840174
0.000836844
0.000832723
0.000828784
0.000824111
0.000819905
0.000814977
0.000810831
0.000805505
0.000851783
0.000851364
0.000851007
0.000850643
0.000850325
0.000849913
0.000849461
0.000848796
0.000848051
0.000846946
0.000845807
0.000844252
0.000842744
0.000840784
0.000839022
0.000836718
0.000834874
0.000832241
0.000851785
0.000851364
0.00085099
0.000850615
0.000850291
0.000849949
0.000849651
0.000849295
0.000848974
0.000848543
0.000848139
0.000847586
0.000847071
0.000846371
0.000845747
0.000844894
0.000844187
0.000843193
0.000851783
0.000851365
0.000850981
0.000850607
0.000850268
0.000849931
0.00084963
0.000849323
0.000849048
0.000848757
0.000848494
0.000848201
0.000847934
0.000847625
0.000847344
0.000847008
0.000846706
0.000846341
0.000851781
0.000851365
0.000850975
0.000850602
0.000850253
0.000849918
0.000849606
0.000849305
0.000849023
0.00084875
0.000848494
0.000848243
0.000848008
0.000847774
0.000847553
0.000847332
0.000847122
0.000846909
0.00085178
0.000851364
0.00085097
0.000850596
0.000850243
0.000849908
0.00084959
0.000849288
0.000849001
0.000848727
0.000848467
0.000848218
0.000847981
0.000847753
0.000847536
0.000847327
0.000847128
0.000846936
0.000851779
0.000851363
0.000850967
0.000850592
0.000850237
0.000849899
0.000849579
0.000849275
0.000848985
0.000848709
0.000848445
0.000848194
0.000847954
0.000847725
0.000847505
0.000847295
0.000847094
0.000846901
0.000851779
0.000851362
0.000850966
0.00085059
0.000850233
0.000849894
0.000849572
0.000849266
0.000848974
0.000848696
0.000848431
0.000848178
0.000847936
0.000847704
0.000847483
0.000847271
0.000847068
0.000846874
0.000851779
0.000851362
0.000850965
0.000850589
0.000850231
0.000849892
0.000849569
0.000849262
0.000848969
0.00084869
0.000848424
0.000848169
0.000847926
0.000847694
0.000847471
0.000847258
0.000847054
0.000846859
0.000851779
0.000851362
0.000850965
0.000850589
0.000850232
0.000849892
0.000849569
0.000849262
0.000848969
0.00084869
0.000848423
0.000848169
0.000847925
0.000847692
0.000847469
0.000847256
0.000847051
0.000846855
0.000851779
0.000851363
0.000850967
0.000850591
0.000850234
0.000849895
0.000849573
0.000849266
0.000848973
0.000848695
0.000848427
0.000848173
0.000847927
0.000847693
0.000847467
0.00084725
0.00084704
0.000846839
0.000851778
0.000851364
0.000850968
0.000850595
0.000850238
0.000849901
0.000849578
0.000849272
0.000848975
0.000848692
0.000848412
0.000848144
0.000847874
0.000847614
0.000847346
0.000847089
0.000846818
0.000846562
0.000851776
0.000851369
0.000850968
0.000850603
0.000850242
0.000849906
0.00084956
0.000849225
0.00084886
0.000848491
0.000848073
0.000847645
0.000847151
0.000846654
0.000846075
0.00084551
0.000844848
0.000844229
0.000851765
0.00085139
0.000850969
0.000850622
0.00085019
0.000849724
0.000849095
0.00084836
0.000847395
0.000846288
0.000844933
0.000843452
0.000841735
0.000839945
0.000837917
0.000835943
0.000833675
0.000831613
0.000851752
0.000851487
0.000850905
0.000850325
0.000848947
0.000847049
0.000844303
0.000840956
0.000836728
0.000832089
0.000826798
0.000821336
0.000815452
0.000809501
0.000803504
0.00079761
0.000791429
0.000785952
0.000851934
0.000851465
0.000848966
0.000844876
0.000836869
0.000827203
0.000815584
0.000802461
0.000788038
0.00077395
0.000759307
0.000745614
0.000731721
0.000719131
0.000706331
0.000695154
0.000683508
0.000673828
0.000852438
0.000845503
0.00082765
0.000805982
0.000773769
0.000741362
0.00070814
0.000677897
0.000648533
0.000622946
0.000598384
0.000577466
0.00055722
0.00054029
0.000523554
0.000509918
0.000495908
0.000484945
0.000834695
0.000800299
0.000722678
0.00064473
0.000577981
0.000524015
0.000477063
0.000439739
0.000406995
0.000381076
0.00035751
0.000339014
0.000321491
0.000307949
0.000294511
0.000284339
0.000273706
0.000265929
0.00074709
0.000565322
0.000424475
0.000338528
0.000281695
0.000241103
0.000209989
0.000187116
0.000168524
0.000154555
0.000142476
0.00013338
0.000125021
0.000118803
0.000112723
0.000108316
0.000103713
0.00010048
0.00034507
0.000180412
0.000124377
9.66005e-05
7.95266e-05
6.85224e-05
6.11088e-05
5.61038e-05
5.25366e-05
5.00693e-05
4.82444e-05
4.70089e-05
4.60729e-05
4.55006e-05
4.50599e-05
4.48708e-05
4.47114e-05
4.4762e-05
3.41198e-05
4.01624e-05
4.47622e-05
4.78934e-05
5.04606e-05
5.25069e-05
5.40895e-05
5.52767e-05
5.61324e-05
5.67236e-05
5.7101e-05
5.73184e-05
5.74058e-05
5.73738e-05
5.73472e-05
5.72052e-05
5.70546e-05
5.68751e-05
2.75626e-06
7.63737e-06
9.18038e-06
1.0434e-05
1.14217e-05
1.22058e-05
1.28391e-05
1.33605e-05
1.37974e-05
1.41774e-05
1.45484e-05
1.49106e-05
1.52733e-05
1.56461e-05
1.6033e-05
1.64345e-05
1.68472e-05
1.72695e-05
1.77039e-05
1.8168e-05
1.87038e-05
1.93566e-05
2.00972e-05
2.08959e-05
2.17433e-05
2.26404e-05
2.35891e-05
2.45918e-05
2.56468e-05
2.67509e-05
2.78948e-05
2.90656e-05
3.02559e-05
3.1457e-05
3.26617e-05
3.38649e-05
3.50625e-05
3.62516e-05
3.74298e-05
3.85963e-05
3.97505e-05
4.08934e-05
4.20259e-05
4.3151e-05
4.42719e-05
4.53941e-05
4.65245e-05
4.76732e-05
4.88297e-05
4.99719e-05
5.11108e-05
5.22425e-05
5.33696e-05
5.44918e-05
5.56097e-05
5.67239e-05
5.78344e-05
5.89417e-05
6.00458e-05
6.1147e-05
6.22452e-05
6.33405e-05
6.44327e-05
6.55218e-05
6.66076e-05
6.769e-05
6.87684e-05
6.9843e-05
7.09131e-05
7.19785e-05
7.30387e-05
7.40934e-05
7.5142e-05
7.61841e-05
7.72191e-05
7.82467e-05
7.92661e-05
8.0277e-05
8.12785e-05
8.22704e-05
8.32518e-05
8.42223e-05
8.51812e-05
8.61279e-05
8.70618e-05
8.79823e-05
8.88886e-05
8.97803e-05
9.06566e-05
9.1517e-05
9.23607e-05
9.31869e-05
9.39949e-05
9.47838e-05
9.55527e-05
9.63005e-05
9.7026e-05
9.7728e-05
9.84054e-05
9.90576e-05
9.96849e-05
0.000100291
0.000100878
0.00010144
0.00010198
0.000102497
0.000102991
0.000103461
0.000103908
0.00010433
0.000104727
0.0001051
0.000105448
0.000105771
0.000106068
0.000106339
0.000106584
0.000106804
0.000106997
0.000107164
0.000107304
0.000107418
0.000107506
0.000107568
0.000107603
0.000107612
0.000107595
0.000107552
0.000107482
0.000107388
0.000107267
0.00010712
0.000106957
0.000106761
0.000106541
0.000106291
0.000106022
0.000105735
0.00010542
0.000105084
0.000104725
0.000104345
0.000103943
0.000103521
0.000103079
0.000102618
0.000102138
0.000101639
0.000101123
0.00010059
0.00010004
9.94742e-05
9.88929e-05
9.82968e-05
9.76865e-05
9.70626e-05
9.64257e-05
9.57765e-05
9.51157e-05
9.44439e-05
9.37618e-05
9.30702e-05
9.23701e-05
9.16628e-05
9.09508e-05
9.02439e-05
8.96645e-05
8.92553e-05
8.88615e-05
8.84662e-05
8.80676e-05
8.76653e-05
8.7259e-05
8.68474e-05
8.64282e-05
8.59962e-05
8.55409e-05
8.50317e-05
8.44057e-05
8.25871e-05
4.33441e-06
1.75542e-05
3.89844e-05
5.78487e-05
7.1826e-05
8.17739e-05
8.88768e-05
9.40052e-05
9.77207e-05
0.00010034
0.000102105
0.000103699
0.000105416
0.000107326
0.000109386
0.000111509
0.000113611
0.000115634
0.000117566
0.000119459
0.000121211
0.000122673
0.000123997
0.000125343
0.000126803
0.000128449
0.000130351
0.000132596
0.000135293
0.000138594
0.000142627
0.000147107
0.000152017
0.000157345
0.000163069
0.000169118
0.000175525
0.000182245
0.000189243
0.000196482
0.000203926
0.000211538
0.000219282
0.000227122
0.000235027
0.000242967
0.000250923
0.000258892
0.0002669
0.000274956
0.000283054
0.000291201
0.000299397
0.000307647
0.000315953
0.00032432
0.00033275
0.000341248
0.000349817
0.000358461
0.000367183
0.000375986
0.000384873
0.000393845
0.000402905
0.000412054
0.000421292
0.000430621
0.000440039
0.000449546
0.000459142
0.000468825
0.000478591
0.00048844
0.000498368
0.000508372
0.000518447
0.000528589
0.000538794
0.000549057
0.000559372
0.000569733
0.000580135
0.000590571
0.000601035
0.000611521
0.000622021
0.000632529
0.000643038
0.000653542
0.000664036
0.000674511
0.000684964
0.000695386
0.000705773
0.000716113
0.000726395
0.000736594
0.000746672
0.000756561
0.000766133
0.000775174
0.000783605
0.000791982
0.000800201
0.000808284
0.00081622
0.000824004
0.000831631
0.000839093
0.000846386
0.000853504
0.000860441
0.000867191
0.000873751
0.000880113
0.000886275
0.000892232
0.000897978
0.000903511
0.000908827
0.000913921
0.000918791
0.000923434
0.000927847
0.000932028
0.000935975
0.000939687
0.000943165
0.000946407
0.000949417
0.000952193
0.000954706
0.000957066
0.0009592
0.000960867
0.000962328
0.000963719
0.000964836
0.000965698
0.000966329
0.000966731
0.000966907
0.00096686
0.000966593
0.000966109
0.000965415
0.000964516
0.000963416
0.000962119
0.000960629
0.000958952
0.000957093
0.000955055
0.000952845
0.000950468
0.000947929
0.000945234
0.000942388
0.000939399
0.000936269
0.000933005
0.000929607
0.000926068
0.000922337
0.000918128
0.000912214
0.00090491
0.000897165
0.00088924
0.000881207
0.000873094
0.000864907
0.000856644
0.000848283
0.000839775
0.000830967
0.000821589
0.000810245
0.000783159
5.63743e-06
2.59449e-05
6.00208e-05
9.19642e-05
0.000117929
0.000137803
0.00015247
0.000163186
0.000171044
0.000176921
0.00018149
0.00018533
0.000188849
0.000192282
0.000195736
0.000199228
0.000202731
0.000206203
0.000209594
0.000212852
0.000216111
0.00021964
0.000223573
0.000228016
0.000233071
0.000238835
0.000245383
0.000252754
0.000260926
0.000269774
0.000279123
0.00028922
0.000300057
0.000311581
0.000323893
0.000337227
0.000351073
0.000365355
0.000380014
0.000394992
0.000410236
0.000425703
0.000441351
0.000457145
0.000473054
0.000489058
0.000505142
0.000521296
0.000537542
0.00055388
0.000570312
0.000586842
0.000603474
0.000620215
0.000637071
0.000654045
0.000671145
0.000688375
0.000705743
0.000723255
0.000740914
0.000758725
0.000776691
0.000794813
0.000813093
0.000831532
0.000850129
0.000868882
0.000887789
0.000906849
0.000926056
0.000945406
0.000964893
0.000984512
0.00100425
0.00102411
0.00104408
0.00106415
0.0010843
0.00110453
0.00112483
0.00114519
0.00116558
0.00118601
0.00120646
0.00122692
0.00124736
0.00126779
0.00128817
0.00130851
0.00132879
0.00134899
0.00136909
0.00138908
0.00140893
0.00142863
0.00144813
0.0014674
0.00148638
0.001505
0.00152316
0.0015408
0.00155804
0.00157503
0.00159173
0.00160813
0.00162423
0.00164
0.00165544
0.00167053
0.00168527
0.00169963
0.00171362
0.00172721
0.0017404
0.00175318
0.00176554
0.00177746
0.00178895
0.00179999
0.00181057
0.00182069
0.00183035
0.00183953
0.00184823
0.00185644
0.00186417
0.00187141
0.00187816
0.00188442
0.00189019
0.00189546
0.00190025
0.00190462
0.00190862
0.00191172
0.00191429
0.00191668
0.0019185
0.00191983
0.00192068
0.00192105
0.00192096
0.0019204
0.00191939
0.00191794
0.00191605
0.00191374
0.00191101
0.00190787
0.00190433
0.00190041
0.0018961
0.00189143
0.0018864
0.00188103
0.00187531
0.00186928
0.00186293
0.00185629
0.00184935
0.00184214
0.00183466
0.00182689
0.00181876
0.00180995
0.00179951
0.00178755
0.00177483
0.0017617
0.00174832
0.00173473
0.00172097
0.00170702
0.00169285
0.00167836
0.00166325
0.00164677
0.00162617
0.00158468
6.57332e-06
3.57075e-05
8.0652e-05
0.000121608
0.00015472
0.000180289
0.000199527
0.000213799
0.000224384
0.000232383
0.000238694
0.000244019
0.000248869
0.00025358
0.000258352
0.000263288
0.000268438
0.000273831
0.000279507
0.000285531
0.000292013
0.00029909
0.000306875
0.000315466
0.000324946
0.000335375
0.000346793
0.000359206
0.000372598
0.000386934
0.000402194
0.000418411
0.000435574
0.000453669
0.000472502
0.00049168
0.000511381
0.000531559
0.000552147
0.000573078
0.00059428
0.000615746
0.000637443
0.000659343
0.000681429
0.0007037
0.000726171
0.000748861
0.000771696
0.000794672
0.00081779
0.000841057
0.000864479
0.000888061
0.00091181
0.000935732
0.000959834
0.000984122
0.0010086
0.00103327
0.00105815
0.00108323
0.00110853
0.00113403
0.00115974
0.00118566
0.00121178
0.00123811
0.00126464
0.00129136
0.00131826
0.00134535
0.0013726
0.00140001
0.00142757
0.00145527
0.00148309
0.00151103
0.00153906
0.00156717
0.00159536
0.00162359
0.00165185
0.00168013
0.00170841
0.00173667
0.00176488
0.00179304
0.00182112
0.00184911
0.00187697
0.00190469
0.00193224
0.0019596
0.00198674
0.00201362
0.00204021
0.00206647
0.00209234
0.00211778
0.00214272
0.00216719
0.00219124
0.00221492
0.0022382
0.00226107
0.0022835
0.00230549
0.00232701
0.00234804
0.00236858
0.0023886
0.0024081
0.00242705
0.00244544
0.00246325
0.00248049
0.00249712
0.00251315
0.00252855
0.00254332
0.00255746
0.00257094
0.00258377
0.00259593
0.00260743
0.00261824
0.00262838
0.00263784
0.00264661
0.00265471
0.00266213
0.00266888
0.00267514
0.00268063
0.00268505
0.00268886
0.00269222
0.00269486
0.00269682
0.0026981
0.00269873
0.0026987
0.00269804
0.00269675
0.00269484
0.00269232
0.00268921
0.00268552
0.00268126
0.00267644
0.00267108
0.00266518
0.00265877
0.00265186
0.00264446
0.00263658
0.00262825
0.00261948
0.00261029
0.00260069
0.0025907
0.00258032
0.00256955
0.00255831
0.00254635
0.00253311
0.00251857
0.00250319
0.00248727
0.00247097
0.00245437
0.00243751
0.0024204
0.00240301
0.00238521
0.00236673
0.00234654
0.00232141
0.00227713
7.23267e-06
4.60584e-05
0.000100773
0.000148919
0.000187569
0.000217355
0.000239875
0.000256767
0.000269502
0.000279334
0.000287285
0.00029415
0.000300516
0.000306789
0.000313231
0.000320006
0.000327216
0.000334934
0.000343233
0.000352194
0.00036191
0.000372478
0.000383986
0.000396506
0.000410092
0.000424779
0.000440578
0.00045748
0.000475459
0.000494481
0.000514504
0.000535482
0.000557349
0.000580011
0.000603349
0.000627249
0.000651691
0.000676629
0.000702012
0.000727798
0.000753962
0.000780429
0.000807163
0.000834136
0.000861328
0.000888718
0.000916278
0.00094398
0.000971867
0.000999943
0.00102821
0.00105668
0.00108536
0.00111424
0.00114333
0.00117264
0.00120218
0.00123194
0.00126193
0.00129214
0.00132259
0.00135329
0.00138423
0.00141541
0.00144683
0.00147848
0.00151037
0.00154248
0.00157482
0.00160736
0.00164011
0.00167304
0.00170615
0.00173943
0.00177286
0.00180642
0.00184011
0.0018739
0.00190778
0.00194172
0.00197571
0.00200974
0.00204377
0.00207779
0.00211177
0.0021457
0.00217955
0.0022133
0.00224693
0.00228041
0.00231371
0.00234681
0.00237969
0.00241231
0.00244464
0.00247666
0.00250832
0.00253959
0.00257045
0.00260087
0.00263084
0.00266034
0.00268939
0.00271798
0.0027461
0.00277372
0.00280083
0.0028274
0.00285342
0.00287887
0.00290372
0.00292797
0.00295159
0.00297456
0.00299687
0.0030185
0.00303944
0.00305968
0.00307919
0.00309797
0.00311601
0.00313329
0.0031498
0.00316553
0.00318048
0.00319463
0.00320799
0.00322054
0.00323228
0.00324321
0.00325334
0.00326266
0.00327131
0.00327927
0.00328619
0.00329196
0.00329715
0.00330164
0.00330529
0.00330814
0.00331019
0.00331146
0.00331196
0.00331169
0.00331067
0.00330891
0.00330643
0.00330323
0.00329934
0.00329476
0.00328951
0.0032836
0.00327705
0.00326987
0.00326209
0.00325371
0.00324476
0.00323526
0.00322521
0.00321465
0.00320359
0.00319205
0.00318003
0.00316754
0.00315452
0.00314082
0.00312611
0.00311035
0.00309378
0.0030766
0.00305897
0.00304098
0.00302267
0.00300406
0.00298515
0.00296581
0.00294571
0.00292382
0.00289704
0.00285469
7.70233e-06
5.55807e-05
0.000119239
0.000173822
0.000217347
0.000250851
0.000276297
0.00029558
0.000310349
0.000321984
0.000331603
0.000340078
0.000348059
0.000356007
0.000364237
0.000372953
0.000382293
0.000392358
0.000403229
0.000414985
0.000427701
0.000441449
0.000456288
0.000472262
0.000489399
0.000507706
0.000527174
0.000547776
0.000569471
0.00059221
0.000615934
0.000640575
0.000666056
0.000692295
0.000719208
0.000746725
0.000774795
0.00080337
0.0008324
0.000861844
0.00089166
0.000921807
0.000952251
0.000982967
0.00101394
0.00104514
0.00107656
0.00110821
0.00114007
0.00117215
0.00120447
0.00123701
0.00126978
0.00130278
0.00133603
0.00136951
0.00140324
0.00143723
0.00147146
0.00150597
0.00154072
0.00157573
0.00161098
0.00164647
0.0016822
0.00171817
0.00175436
0.00179077
0.0018274
0.00186422
0.00190124
0.00193843
0.00197579
0.00201331
0.00205095
0.00208872
0.00212659
0.00216455
0.00220257
0.00224065
0.00227875
0.00231685
0.00235495
0.00239301
0.00243101
0.00246893
0.00250675
0.00254444
0.00258198
0.00261934
0.0026565
0.00269343
0.0027301
0.00276648
0.00280255
0.00283828
0.00287363
0.00290858
0.00294311
0.00297719
0.00301081
0.00304394
0.00307659
0.00310874
0.00314037
0.00317145
0.00320198
0.00323191
0.00326124
0.00328995
0.00331801
0.0033454
0.0033721
0.0033981
0.00342337
0.0034479
0.00347168
0.00349468
0.00351689
0.0035383
0.0035589
0.00357866
0.00359759
0.00361566
0.00363287
0.00364921
0.00366467
0.00367925
0.00369293
0.00370573
0.00371765
0.00372869
0.00373909
0.00374848
0.00375682
0.00376398
0.00377056
0.00377623
0.00378102
0.00378491
0.00378793
0.00379008
0.00379137
0.00379182
0.00379144
0.00379023
0.00378822
0.00378542
0.00378184
0.00377749
0.00377239
0.00376656
0.00376001
0.00375276
0.00374482
0.00373622
0.00372697
0.00371709
0.0037066
0.00369553
0.00368388
0.00367169
0.00365897
0.00364571
0.00363189
0.00361741
0.00360211
0.00358595
0.00356903
0.0035515
0.00353348
0.00351506
0.0034963
0.00347722
0.00345785
0.00343809
0.00341764
0.00339557
0.00336915
0.00333054
8.03819e-06
6.45344e-05
0.000135961
0.000196189
0.00024412
0.000281133
0.00030945
0.000331157
0.000348035
0.000361564
0.000372941
0.000383103
0.000392756
0.000402411
0.000412426
0.000423043
0.000434425
0.000446687
0.000459915
0.000474178
0.000489535
0.000506033
0.000523706
0.000542573
0.000562639
0.000583891
0.000606302
0.000629832
0.000654432
0.000680043
0.000706601
0.000734038
0.000762283
0.000791266
0.000820918
0.000851179
0.000881995
0.000913318
0.000945103
0.00097731
0.0010099
0.00104284
0.00107611
0.00110968
0.00114352
0.00117764
0.00121202
0.00124664
0.00128152
0.00131663
0.00135199
0.0013876
0.00142344
0.00145953
0.00149586
0.00153244
0.00156927
0.00160635
0.00164368
0.00168126
0.00171909
0.00175716
0.00179547
0.00183401
0.00187278
0.00191177
0.00195099
0.0019904
0.00203002
0.00206983
0.00210981
0.00214996
0.00219025
0.00223069
0.00227125
0.00231192
0.00235267
0.0023935
0.00243438
0.0024753
0.00251623
0.00255715
0.00259805
0.00263891
0.00267969
0.00272038
0.00276095
0.00280139
0.00284166
0.00288174
0.00292161
0.00296123
0.00300059
0.00303966
0.0030784
0.0031168
0.00315482
0.00319244
0.00322964
0.00326639
0.00330267
0.00333847
0.00337377
0.00340855
0.00344278
0.00347645
0.00350954
0.00354201
0.00357386
0.00360504
0.00363556
0.00366537
0.00369447
0.00372283
0.00375043
0.00377725
0.00380328
0.0038285
0.00385289
0.00387644
0.00389912
0.00392094
0.00394187
0.0039619
0.00398102
0.00399923
0.0040165
0.00403284
0.00404825
0.0040627
0.00407621
0.00408892
0.0041008
0.00411158
0.00412127
0.00412989
0.00413778
0.00414471
0.00415068
0.00415571
0.00415981
0.00416298
0.00416525
0.00416662
0.0041671
0.0041667
0.00416545
0.00416335
0.00416041
0.00415666
0.0041521
0.00414675
0.00414064
0.00413377
0.00412616
0.00411783
0.00410881
0.0040991
0.00408874
0.00407773
0.00406612
0.0040539
0.0040411
0.00402774
0.00401379
0.0039992
0.00398391
0.00396786
0.00395113
0.0039338
0.00391598
0.00389773
0.00387914
0.00386024
0.00384108
0.0038216
0.00380157
0.00378018
0.00375516
0.00372061
8.28919e-06
7.23244e-05
0.000150249
0.000215491
0.000267539
0.000308018
0.000339282
0.000363538
0.000382663
0.000398215
0.000411454
0.000423376
0.000434735
0.000446089
0.000457835
0.000470246
0.000483507
0.000497744
0.000513044
0.000529469
0.000547061
0.000565846
0.000585841
0.000607045
0.000629445
0.000653015
0.000677716
0.000703498
0.000730306
0.000758081
0.00078676
0.000816279
0.000846576
0.000877604
0.000909289
0.000941575
0.00097441
0.00100775
0.00104155
0.00107577
0.00111038
0.00114536
0.00118067
0.00121631
0.00125225
0.00128847
0.00132498
0.00136175
0.00139878
0.00143607
0.0014736
0.00151137
0.00154938
0.00158762
0.0016261
0.00166481
0.00170377
0.00174295
0.00178237
0.00182203
0.00186191
0.00190202
0.00194234
0.00198289
0.00202364
0.00206461
0.00210577
0.00214712
0.00218866
0.00223036
0.00227224
0.00231426
0.00235643
0.00239872
0.00244113
0.00248364
0.00252623
0.00256889
0.0026116
0.00265435
0.00269711
0.00273987
0.0027826
0.00282529
0.00286791
0.00291045
0.00295288
0.00299517
0.00303731
0.00307927
0.00312103
0.00316255
0.00320382
0.00324481
0.00328548
0.00332583
0.00336581
0.00340541
0.00344461
0.00348336
0.00352167
0.0035595
0.00359682
0.00363363
0.00366989
0.00370559
0.00374069
0.00377518
0.00380902
0.00384221
0.0038747
0.00390649
0.00393755
0.00396785
0.00399738
0.00402612
0.00405404
0.00408113
0.00410738
0.00413275
0.00415724
0.00418084
0.00420352
0.00422528
0.00424609
0.00426597
0.00428488
0.00430282
0.00431979
0.00433578
0.0043508
0.00436506
0.00437825
0.00439044
0.00440148
0.00441154
0.00442074
0.00442892
0.00443612
0.00444234
0.00444759
0.00445189
0.00445524
0.00445765
0.00445914
0.00445972
0.00445941
0.0044582
0.00445613
0.00445321
0.00444945
0.00444486
0.00443946
0.00443328
0.00442632
0.00441861
0.00441016
0.004401
0.00439115
0.00438062
0.00436943
0.00435762
0.00434519
0.00433217
0.00431855
0.00430431
0.00428942
0.00427385
0.00425765
0.00424088
0.00422362
0.00420594
0.00418791
0.0041696
0.00415107
0.0041323
0.00411313
0.00409291
0.0040698
0.00403994
8.71775e-06
7.6709e-05
0.000160287
0.000230665
0.000286971
0.00033112
0.000365513
0.000392484
0.000414003
0.000431701
0.000446899
0.000460638
0.000473721
0.000486744
0.00050014
0.000514211
0.00052916
0.000545126
0.000562197
0.00058043
0.000599854
0.000620482
0.000642311
0.000665332
0.000689532
0.000714882
0.000741317
0.000768781
0.000797216
0.000826563
0.000856759
0.000887739
0.000919434
0.000951793
0.0009848
0.00101841
0.00105259
0.00108728
0.00112245
0.00115806
0.00119408
0.00123047
0.0012672
0.00130422
0.00134151
0.00137907
0.00141692
0.00145506
0.00149347
0.00153213
0.00157102
0.00161013
0.00164945
0.00168899
0.00172874
0.0017687
0.00180887
0.00184926
0.00188985
0.00193066
0.00197167
0.00201288
0.00205429
0.0020959
0.0021377
0.00217969
0.00222187
0.00226423
0.00230676
0.00234946
0.00239232
0.00243533
0.00247848
0.00252176
0.00256516
0.00260867
0.00265227
0.00269595
0.0027397
0.00278351
0.00282734
0.0028712
0.00291505
0.00295888
0.00300268
0.00304641
0.00309006
0.00313361
0.00317702
0.00322029
0.00326338
0.00330627
0.00334894
0.00339135
0.00343349
0.00347532
0.00351682
0.00355797
0.00359873
0.00363908
0.003679
0.00371847
0.00375745
0.00379592
0.00383386
0.00387124
0.00390804
0.00394423
0.00397978
0.00401467
0.00404888
0.00408238
0.00411514
0.00414715
0.00417838
0.00420881
0.00423842
0.00426719
0.0042951
0.00432213
0.00434827
0.00437349
0.00439778
0.00442113
0.00444353
0.00446495
0.0044854
0.00450486
0.00452332
0.00454077
0.0045573
0.00457292
0.00458746
0.00460103
0.00461345
0.00462494
0.00463544
0.00464491
0.00465337
0.00466082
0.00466729
0.00467277
0.00467728
0.00468083
0.00468344
0.00468511
0.00468585
0.00468569
0.00468464
0.00468271
0.00467991
0.00467627
0.0046718
0.00466651
0.00466043
0.00465357
0.00464595
0.00463759
0.00462851
0.00461873
0.00460828
0.00459717
0.00458542
0.00457306
0.00456009
0.0045465
0.0045323
0.00451748
0.00450205
0.00448608
0.00446963
0.00445276
0.00443556
0.00441811
0.00440047
0.00438268
0.00436462
0.00434579
0.00432476
0.00429931
9.26944e-06
7.82466e-05
0.000166363
0.000241744
0.000302331
0.000350287
0.000387945
0.000417756
0.00044178
0.000461716
0.000478937
0.000494527
0.000509329
0.000523975
0.000538927
0.000554513
0.000570956
0.000588402
0.000606948
0.000626661
0.00064757
0.000669645
0.000692858
0.000717166
0.000742498
0.000768852
0.000796239
0.000824619
0.000853938
0.000884142
0.000915176
0.000946989
0.000979537
0.00101279
0.00104668
0.00108117
0.0011162
0.00115171
0.00118768
0.00122406
0.00126082
0.00129794
0.0013354
0.00137319
0.0014113
0.00144969
0.00148834
0.00152719
0.00156626
0.00160554
0.001645
0.00168464
0.00172445
0.00176444
0.00180461
0.00184496
0.00188549
0.0019262
0.0019671
0.00200817
0.00204944
0.00209088
0.00213251
0.00217433
0.00221633
0.00225852
0.00230088
0.00234344
0.00238617
0.00242908
0.00247216
0.00251541
0.00255882
0.00260239
0.0026461
0.00268996
0.00273394
0.00277804
0.00282225
0.00286655
0.00291092
0.00295536
0.00299984
0.00304434
0.00308886
0.00313336
0.00317782
0.00322223
0.00326655
0.00331078
0.00335487
0.00339881
0.00344257
0.00348612
0.00352943
0.00357248
0.00361525
0.00365769
0.00369979
0.00374151
0.00378283
0.00382371
0.00386414
0.00390409
0.00394352
0.00398241
0.00402073
0.00405845
0.00409555
0.00413201
0.00416778
0.00420286
0.0042372
0.0042708
0.00430361
0.00433563
0.00436683
0.00439718
0.00442666
0.00445526
0.00448296
0.00450974
0.00453558
0.00456046
0.00458438
0.00460732
0.00462926
0.0046502
0.00467013
0.00468903
0.00470701
0.00472395
0.0047399
0.00475483
0.00476869
0.00478159
0.00479344
0.00480422
0.00481398
0.00482271
0.00483044
0.00483717
0.00484291
0.00484768
0.00485148
0.00485434
0.00485625
0.00485724
0.00485733
0.00485651
0.00485482
0.00485227
0.00484887
0.00484464
0.0048396
0.00483377
0.00482716
0.0048198
0.0048117
0.00480288
0.00479337
0.00478319
0.00477236
0.0047609
0.00474881
0.00473612
0.00472283
0.00470894
0.00469448
0.00467949
0.00466402
0.00464816
0.00463197
0.00461555
0.00459898
0.00458232
0.00456552
0.00454816
0.00452918
0.00450738
9.7603e-06
7.85047e-05
0.000169804
0.000249462
0.000313985
0.000365627
0.000406534
0.000439212
0.000465782
0.000487992
0.000507256
0.000524698
0.000541189
0.000557388
0.000573786
0.000590747
0.000608512
0.000627192
0.000646847
0.000667472
0.000689129
0.000711901
0.000735791
0.000760786
0.000786883
0.000814065
0.000842266
0.000871406
0.000901424
0.000932267
0.000963885
0.000996231
0.00102926
0.00106292
0.00109714
0.00113188
0.0011671
0.00120277
0.00123886
0.00127533
0.00131215
0.00134929
0.00138674
0.00142446
0.00146244
0.00150066
0.0015391
0.00157778
0.00161677
0.00165594
0.00169519
0.00173454
0.001774
0.00181359
0.00185331
0.00189318
0.0019332
0.00197338
0.00201372
0.00205423
0.00209491
0.00213577
0.00217682
0.00221805
0.00225949
0.00230112
0.00234296
0.00238501
0.00242728
0.00246975
0.00251245
0.00255536
0.00259848
0.0026418
0.00268534
0.00272907
0.00277299
0.0028171
0.00286137
0.0029058
0.00295037
0.00299508
0.00303989
0.0030848
0.00312978
0.00317481
0.00321987
0.00326494
0.00330999
0.003355
0.00339994
0.00344477
0.00348949
0.00353404
0.00357841
0.00362257
0.00366648
0.00371012
0.00375345
0.00379644
0.00383907
0.00388129
0.00392309
0.00396442
0.00400527
0.00404559
0.00408537
0.00412457
0.00416316
0.00420111
0.00423841
0.004275
0.00431088
0.00434602
0.00438038
0.00441394
0.00444669
0.00447859
0.00450962
0.00453976
0.004569
0.00459732
0.00462468
0.00465109
0.00467653
0.00470097
0.00472441
0.00474684
0.00476824
0.00478861
0.00480798
0.00482633
0.00484369
0.00486003
0.00487534
0.0048897
0.00490295
0.00491508
0.00492618
0.00493625
0.0049453
0.00495335
0.0049604
0.00496646
0.00497154
0.00497567
0.00497885
0.00498109
0.00498241
0.00498283
0.00498237
0.00498103
0.00497883
0.0049758
0.00497195
0.00496729
0.00496185
0.00495564
0.00494869
0.00494101
0.00493263
0.00492356
0.00491383
0.00490346
0.00489246
0.00488085
0.00486864
0.00485585
0.00484251
0.00482865
0.00481432
0.0047996
0.00478457
0.00476931
0.00475394
0.00473852
0.00472304
0.0047072
0.00469016
0.00467146
1.01817e-05
7.78887e-05
0.000171192
0.000254301
0.000322274
0.000377318
0.000421327
0.000456797
0.000485872
0.000510326
0.000531599
0.000550848
0.000568985
0.000586637
0.000604266
0.000622168
0.000640626
0.000659908
0.00068016
0.000701498
0.000723995
0.000747585
0.000772231
0.000797907
0.000824577
0.000852174
0.000880628
0.000909915
0.000939997
0.000970826
0.00100236
0.00103454