/*--------------------------------*- C++ -*----------------------------------*\
| =========                 |                                                 |
| \\      /  F ield         | OpenFOAM: The Open Source CFD Toolbox           |
|  \\    /   O peration     | Version:  4.1                                   |
|   \\  /    A nd           | Web:      www.OpenFOAM.org                      |
|    \\/     M anipulation  |                                                 |
\*---------------------------------------------------------------------------*/
FoamFile
{
    version     2.0;
    format      ascii;
    class       volScalarField;
    location    "298";
    object      p;
}
// * * * * * * * * * * * * * * * * * * * * * * * * * * * * * * * * * * * * * //

dimensions      [0 2 -2 0 0 0 0];

internalField   nonuniform List<scalar> 
12225
(
-1.61493
-3.8475
-4.96134
-5.27075
-5.44546
-5.62478
-5.7734
-5.88525
-5.97718
-6.06059
-6.13851
-6.212
-6.28284
-6.3531
-6.42545
-6.4994
-6.59052
-6.64666
-4.8031
-5.63395
-5.83746
-5.73814
-5.70942
-5.77439
-5.85876
-5.93428
-6.00491
-6.07519
-6.14479
-6.21283
-6.27996
-6.34745
-6.41715
-6.49053
-6.57262
-6.68083
-5.19998
-5.12631
-5.23926
-5.32958
-5.4447
-5.5932
-5.73253
-5.84629
-5.94263
-6.02998
-6.11112
-6.1871
-6.25956
-6.33039
-6.40173
-6.47493
-6.55487
-6.63984
-5.07282
-4.97475
-5.23948
-5.44484
-5.57354
-5.69629
-5.81067
-5.90567
-5.98709
-6.06241
-6.13418
-6.20287
-6.26946
-6.33525
-6.40159
-6.46916
-6.53876
-6.60429
-5.06839
-5.08148
-5.33074
-5.50274
-5.59649
-5.69326
-5.79539
-5.88672
-5.96758
-6.04333
-6.11593
-6.18553
-6.25271
-6.31844
-6.38356
-6.44816
-6.51139
-6.56918
-5.13665
-5.18274
-5.36427
-5.50671
-5.59828
-5.69395
-5.79507
-5.88673
-5.96796
-6.04342
-6.11523
-6.1837
-6.24938
-6.313
-6.37506
-6.43529
-6.49256
-6.54398
-5.20736
-5.24944
-5.38501
-5.51554
-5.61172
-5.7052
-5.80089
-5.88888
-5.9678
-6.0412
-6.11102
-6.1776
-6.24127
-6.30251
-6.36149
-6.41777
-6.47021
-6.51663
-5.26171
-5.2982
-5.41057
-5.53078
-5.6254
-5.71431
-5.80441
-5.88894
-5.96593
-6.03779
-6.10609
-6.17117
-6.23323
-6.29252
-6.34906
-6.40237
-6.45148
-6.49476
-5.30724
-5.3407
-5.43665
-5.54568
-5.63679
-5.72178
-5.8074
-5.88896
-5.96416
-6.03451
-6.10132
-6.16492
-6.22538
-6.28286
-6.33725
-6.3881
-6.43463
-6.47565
-5.35471
-5.38529
-5.46592
-5.56272
-5.64922
-5.73024
-5.81124
-5.88936
-5.96229
-6.03074
-6.09572
-6.15751
-6.21612
-6.27156
-6.3237
-6.37213
-6.41627
-6.4553
-5.40334
-5.43052
-5.49769
-5.58246
-5.66326
-5.73986
-5.816
-5.89017
-5.96031
-6.02647
-6.08928
-6.14897
-6.20547
-6.25872
-6.30854
-6.35462
-6.39658
-6.43389
-5.45197
-5.4755
-5.53133
-5.60473
-5.67881
-5.75043
-5.82155
-5.89141
-5.95829
-6.02176
-6.08209
-6.1394
-6.19358
-6.24449
-6.29199
-6.33585
-6.37584
-6.41165
-5.49926
-5.51927
-5.5657
-5.6287
-5.69546
-5.76165
-5.82767
-5.89298
-5.95621
-6.01664
-6.0742
-6.1289
-6.18059
-6.22912
-6.27435
-6.31612
-6.35434
-6.38884
-5.54362
-5.56047
-5.5992
-5.65307
-5.71248
-5.77299
-5.8339
-5.89459
-5.9539
-6.01101
-6.06561
-6.11756
-6.1667
-6.21286
-6.25591
-6.29577
-6.33241
-6.36577
-5.58307
-5.59726
-5.62982
-5.676
-5.72857
-5.78347
-5.83943
-5.8956
-5.95097
-6.00467
-6.05625
-6.10545
-6.15208
-6.19597
-6.23701
-6.27516
-6.31041
-6.34278
-5.61503
-5.62714
-5.65495
-5.69504
-5.74175
-5.79159
-5.84302
-5.89508
-5.94675
-5.99722
-6.04593
-6.09255
-6.13686
-6.17871
-6.21798
-6.25465
-6.28874
-6.32028
-5.63607
-5.64667
-5.67116
-5.70687
-5.74918
-5.79502
-5.84283
-5.89154
-5.94017
-5.98793
-6.03422
-6.07869
-6.1211
-6.16127
-6.19914
-6.23466
-6.26786
-6.29878
-5.64091
-5.65076
-5.67361
-5.70717
-5.74724
-5.79096
-5.83675
-5.88357
-5.93045
-5.97659
-6.02144
-6.0646
-6.10585
-6.14504
-6.18207
-6.21692
-6.24963
-6.28024
-5.62946
-5.63928
-5.66211
-5.69574
-5.73593
-5.77963
-5.82526
-5.87184
-5.91848
-5.96435
-6.00889
-6.05175
-6.0927
-6.13163
-6.16845
-6.20317
-6.2358
-6.26642
-5.6065
-5.61674
-5.64069
-5.6762
-5.71843
-5.76374
-5.81058
-5.8582
-5.90574
-5.95234
-5.99742
-6.04071
-6.08201
-6.12121
-6.15827
-6.1932
-6.22603
-6.25686
-5.57546
-5.58624
-5.61221
-5.65132
-5.69713
-5.7451
-5.79411
-5.84377
-5.89307
-5.94104
-5.98719
-6.03135
-6.07338
-6.11319
-6.15076
-6.18613
-6.21937
-6.25059
-5.53891
-5.54964
-5.57842
-5.62342
-5.67422
-5.72518
-5.77676
-5.82917
-5.88089
-5.93072
-5.97833
-6.02368
-6.06668
-6.10726
-6.14544
-6.1813
-6.21494
-6.24648
-5.49919
-5.50814
-5.54012
-5.59386
-5.65117
-5.70547
-5.75998
-5.81538
-5.86957
-5.92132
-5.97056
-6.01732
-6.06151
-6.10304
-6.14201
-6.17854
-6.21277
-6.2449
-5.4581
-5.4631
-5.49998
-5.56374
-5.62657
-5.6848
-5.74414
-5.80363
-5.86036
-5.91377
-5.96438
-6.01228
-6.05732
-6.09947
-6.1389
-6.17579
-6.21029
-6.24252
-5.41549
-5.41034
-5.46559
-5.54237
-5.60303
-5.66084
-5.72532
-5.79031
-5.85078
-5.907
-5.96006
-6.01002
-6.05664
-6.09997
-6.14026
-6.17781
-6.21286
-6.24584
-5.37779
-5.32341
-5.42418
-5.53671
-5.59727
-5.64893
-5.7116
-5.77614
-5.83612
-5.89233
-5.94596
-5.99675
-6.04426
-6.08849
-6.12967
-6.16809
-6.20393
-6.23729
-5.39873
-5.20275
-5.31714
-5.47993
-5.57788
-5.65432
-5.7308
-5.80112
-5.86302
-5.91962
-5.9727
-6.02221
-6.06796
-6.11021
-6.14933
-6.18574
-6.21987
-6.25262
-5.53855
-5.28709
-5.25696
-5.3074
-5.38317
-5.48331
-5.58764
-5.68043
-5.76177
-5.83587
-5.90413
-5.9663
-6.02252
-6.07334
-6.11944
-6.16148
-6.20017
-6.23667
-5.29518
-5.86455
-5.97419
-5.84435
-5.75948
-5.7633
-5.80109
-5.84224
-5.88464
-5.93031
-5.9775
-6.02371
-6.06768
-6.10903
-6.14762
-6.18344
-6.21681
-6.24915
-2.32207
-3.96808
-4.94197
-5.22531
-5.35289
-5.49336
-5.62129
-5.72073
-5.80209
-5.87475
-5.94089
-6.00037
-6.05365
-6.10151
-6.14462
-6.18316
-6.21723
-6.24542
-7.03276
-7.03251
-7.03244
-7.03279
-7.03355
-7.03464
-7.03598
-7.03749
-7.03908
-7.04071
-7.04241
-7.04419
-7.04607
-7.04806
-7.05019
-7.0525
-7.055
-7.05774
-7.06075
-7.06406
-7.06772
-7.07177
-7.07624
-7.08118
-7.08664
-7.09269
-7.09937
-7.10678
-7.11498
-7.12407
-7.13413
-7.14525
-7.15749
-7.17092
-7.18557
-7.20149
-7.21867
-7.23712
-7.25681
-7.2777
-7.29974
-7.32287
-7.34702
-7.37211
-7.39808
-7.42488
-7.45244
-7.48062
-7.50926
-7.53828
-7.5676
-7.59717
-7.62692
-7.65678
-7.68667
-7.71654
-7.7463
-7.77587
-7.80516
-7.8341
-7.86259
-7.89052
-7.91779
-7.94429
-7.9699
-7.99449
-8.01793
-8.04008
-8.06079
-8.07991
-8.09728
-8.11273
-8.12609
-8.13718
-8.14581
-8.1518
-8.15494
-8.15505
-8.15192
-8.14535
-8.13513
-8.12106
-8.10292
-8.08051
-8.05363
-8.02207
-7.98562
-7.9441
-7.89731
-7.84506
-7.78716
-7.72345
-7.65375
-7.57791
-7.49578
-7.40725
-7.31216
-7.21039
-7.10189
-6.98672
-6.86498
-6.73643
-6.60056
-6.45727
-6.30679
-6.14919
-5.98449
-5.81274
-5.63397
-5.44825
-5.25564
-5.05623
-4.85013
-4.63746
-4.41835
-4.19296
-3.96145
-3.724
-3.48081
-3.23208
-2.97803
-2.71891
-2.45495
-2.18642
-1.91358
-1.63671
-1.35609
-1.07202
-0.784792
-0.494719
-0.202111
0.0927158
0.389458
0.687815
0.987463
1.28805
1.58925
1.89077
2.19231
2.49354
2.79416
3.09388
3.39239
3.68942
3.98468
4.2779
4.56882
4.85719
5.14276
5.42531
5.7046
5.98042
6.25258
6.52086
6.7851
7.04512
7.30075
7.55184
7.79825
8.03986
8.27653
8.50816
8.73466
8.95593
9.17192
9.38266
9.58811
9.78801
9.9821
10.1704
10.3528
10.5294
10.7002
10.8652
11.0245
11.1784
11.3279
11.474
11.6267
11.7829
-7.03326
-7.03303
-7.03299
-7.03341
-7.03424
-7.03527
-7.0364
-7.03757
-7.03876
-7.03998
-7.04121
-7.04249
-7.04385
-7.04535
-7.04701
-7.04884
-7.05088
-7.05314
-7.05566
-7.05847
-7.06157
-7.06499
-7.06879
-7.07304
-7.07781
-7.08317
-7.0892
-7.09598
-7.10361
-7.11219
-7.12179
-7.1325
-7.14439
-7.15752
-7.17193
-7.18765
-7.20468
-7.22301
-7.24259
-7.26338
-7.28531
-7.30831
-7.33232
-7.35724
-7.38299
-7.4095
-7.4367
-7.46447
-7.49271
-7.52134
-7.5503
-7.57951
-7.60891
-7.63842
-7.66799
-7.69754
-7.727
-7.75629
-7.78534
-7.81404
-7.84232
-7.87007
-7.89719
-7.92357
-7.94909
-7.97363
-7.99705
-8.01922
-8.03999
-8.0592
-8.07671
-8.09234
-8.10593
-8.11728
-8.12623
-8.13258
-8.13614
-8.13671
-8.13409
-8.12808
-8.11847
-8.10506
-8.08764
-8.066
-8.03993
-8.00925
-7.97373
-7.9332
-7.88744
-7.83628
-7.77954
-7.71703
-7.64861
-7.5741
-7.49338
-7.40629
-7.31273
-7.21254
-7.10563
-6.99184
-6.87099
-6.74297
-6.60799
-6.46612
-6.31722
-6.16125
-5.99822
-5.82814
-5.65106
-5.46702
-5.2761
-5.07838
-4.87396
-4.66295
-4.4455
-4.22174
-3.99183
-3.75597
-3.51433
-3.26712
-3.01457
-2.7569
-2.49435
-2.22718
-1.95565
-1.68004
-1.40063
-1.11772
-0.831587
-0.542551
-0.250921
0.0429891
0.33888
0.636453
0.935386
1.23532
1.53594
1.83696
2.13805
2.43891
2.73924
3.03872
3.33708
3.63401
3.92924
4.22251
4.51353
4.80207
5.08788
5.37072
5.65037
5.92661
6.19924
6.46806
6.73288
6.99354
7.24986
7.50169
7.74889
7.99132
8.22887
8.46143
8.6889
8.91125
9.12837
9.33999
9.5458
9.74582
9.94013
10.1287
10.3115
10.4885
10.6597
10.8253
10.9854
11.1403
11.2914
11.4394
11.5956
11.7479
-7.03236
-7.03236
-7.03258
-7.03318
-7.03406
-7.03498
-7.03586
-7.03667
-7.03744
-7.03817
-7.03891
-7.03969
-7.04055
-7.04151
-7.0426
-7.04385
-7.04528
-7.0469
-7.04876
-7.05091
-7.05339
-7.05628
-7.05965
-7.06357
-7.06812
-7.07337
-7.07943
-7.08638
-7.09429
-7.10323
-7.11325
-7.12441
-7.13674
-7.15028
-7.16504
-7.18102
-7.1982
-7.21654
-7.23601
-7.25656
-7.27813
-7.30068
-7.32413
-7.34842
-7.37349
-7.39925
-7.42565
-7.45261
-7.48004
-7.50788
-7.53606
-7.56452
-7.59319
-7.62201
-7.65091
-7.67982
-7.70867
-7.73739
-7.76589
-7.79409
-7.82189
-7.84921
-7.87593
-7.90195
-7.92715
-7.95141
-7.97459
-7.99657
-8.01719
-8.03632
-8.05378
-8.06941
-8.08305
-8.09452
-8.10363
-8.1102
-8.11404
-8.11495
-8.11274
-8.1072
-8.09812
-8.08531
-8.06855
-8.04764
-8.02238
-7.99256
-7.95798
-7.91845
-7.87376
-7.82373
-7.76819
-7.70695
-7.63985
-7.56674
-7.48745
-7.40185
-7.30982
-7.21123
-7.10598
-6.99396
-6.87497
-6.74891
-6.61584
-6.47584
-6.32884
-6.17482
-6.01376
-5.84569
-5.67063
-5.48863
-5.29976
-5.1041
-4.90173
-4.69279
-4.47738
-4.25567
-4.0278
-3.79394
-3.5543
-3.30906
-3.05844
-2.80267
-2.54199
-2.27664
-2.0069
-1.73302
-1.4553
-1.17401
-0.88945
-0.601926
-0.311749
-0.0192295
0.275336
0.571652
0.869389
1.1682
1.46778
1.76783
2.06802
2.36806
2.66763
2.96644
3.26418
3.56058
3.85536
4.14823
4.43893
4.72722
5.01284
5.29555
5.57514
5.85139
6.12408
6.39301
6.65801
6.91889
7.17548
7.42763
7.67519
7.91803
8.156
8.389
8.61689
8.83959
9.05704
9.26919
9.4759
9.67708
9.87262
10.0624
10.2465
10.4248
10.5974
10.7645
10.9262
11.083
11.2365
11.3867
11.546
11.688
-7.02947
-7.02988
-7.03061
-7.03155
-7.03253
-7.03342
-7.0342
-7.03485
-7.03541
-7.03591
-7.0364
-7.0369
-7.03748
-7.03815
-7.03897
-7.03995
-7.04113
-7.04256
-7.04426
-7.04631
-7.04875
-7.05168
-7.05516
-7.05926
-7.06406
-7.06965
-7.07609
-7.08345
-7.0918
-7.10117
-7.11162
-7.12317
-7.13585
-7.14967
-7.16461
-7.18067
-7.19781
-7.21602
-7.23526
-7.25549
-7.27666
-7.29873
-7.32164
-7.34533
-7.36974
-7.39483
-7.42053
-7.44677
-7.47349
-7.50064
-7.52815
-7.55596
-7.58402
-7.61225
-7.6406
-7.66899
-7.69735
-7.72561
-7.75369
-7.78151
-7.80896
-7.83597
-7.86242
-7.8882
-7.91321
-7.93731
-7.96037
-7.98227
-8.00286
-8.02199
-8.03949
-8.05522
-8.06899
-8.08063
-8.08997
-8.09681
-8.10096
-8.10223
-8.10042
-8.09533
-8.08676
-8.0745
-8.05834
-8.03807
-8.0135
-7.98442
-7.95063
-7.91193
-7.86812
-7.81902
-7.76444
-7.70422
-7.63817
-7.56614
-7.48797
-7.40352
-7.31266
-7.21525
-7.11119
-7.00038
-6.88269
-6.75805
-6.62646
-6.48792
-6.3424
-6.18987
-6.03033
-5.86379
-5.69028
-5.50983
-5.32253
-5.12843
-4.92764
-4.72026
-4.50643
-4.28627
-4.05995
-3.82763
-3.5895
-3.34576
-3.09662
-2.8423
-2.58304
-2.31909
-2.0507
-1.77815
-1.50171
-1.22166
-0.938304
-0.651937
-0.362872
-0.0714148
0.222145
0.517504
0.814319
1.11226
1.41104
1.71035
2.00986
2.30926
2.60825
2.90653
3.20381
3.4998
3.79421
4.08677
4.37723
4.66531
4.95077
5.23339
5.51292
5.78916
6.06188
6.33089
6.59601
6.85704
7.11383
7.3662
7.614
7.8571
8.09538
8.32872
8.55701
8.78013
8.99802
9.21064
9.41795
9.61984
9.81615
10.0068
10.1917
10.3709
10.5445
10.7125
10.8753
11.0333
11.188
11.3384
11.4969
11.6264
-7.02457
-7.02551
-7.02701
-7.02854
-7.02984
-7.03089
-7.03172
-7.03237
-7.03288
-7.03332
-7.03373
-7.03416
-7.03467
-7.03529
-7.03607
-7.03705
-7.03828
-7.0398
-7.04167
-7.04394
-7.04669
-7.04997
-7.05387
-7.05846
-7.0638
-7.06996
-7.07699
-7.08494
-7.09386
-7.10378
-7.11472
-7.1267
-7.13973
-7.15382
-7.16894
-7.18509
-7.20224
-7.22037
-7.23944
-7.25943
-7.28028
-7.30196
-7.32443
-7.34764
-7.37153
-7.39607
-7.4212
-7.44687
-7.47303
-7.49963
-7.5266
-7.55389
-7.58145
-7.60921
-7.63711
-7.66509
-7.69307
-7.72098
-7.74874
-7.77626
-7.80346
-7.83024
-7.85649
-7.88211
-7.90699
-7.93099
-7.954
-7.97587
-7.99646
-8.01562
-8.03319
-8.04902
-8.06293
-8.07474
-8.08427
-8.09135
-8.09576
-8.09733
-8.09586
-8.09113
-8.08295
-8.07112
-8.05541
-8.03564
-8.01159
-7.98307
-7.94986
-7.91177
-7.8686
-7.82017
-7.76629
-7.70678
-7.64148
-7.57022
-7.49285
-7.40921
-7.31918
-7.22263
-7.11945
-7.00953
-6.89278
-6.76913
-6.63855
-6.50103
-6.35653
-6.20504
-6.04653
-5.88104
-5.70858
-5.5292
-5.34295
-5.14992
-4.9502
-4.74389
-4.53111
-4.31201
-4.08674
-3.85546
-3.61836
-3.37564
-3.12749
-2.87416
-2.61587
-2.35286
-2.08539
-1.81374
-1.53817
-1.25896
-0.976419
-0.690838
-0.402528
-0.111788
0.181098
0.475807
0.771993
1.06935
1.3676
1.66642
1.96547
2.26445
2.56306
2.86101
3.15799
3.45372
3.74791
4.0403
4.33061
4.61859
4.90399
5.18658
5.46613
5.74241
6.01521
6.28434
6.5496
6.81081
7.06779
7.32039
7.56847
7.81188
8.05048
8.28417
8.51283
8.73634
8.95462
9.16758
9.37518
9.57736
9.77401
9.96504
10.1504
10.3301
10.5041
10.6727
10.836
10.9943
11.1491
11.2983
11.454
11.5719
-7.01814
-7.01968
-7.02213
-7.02443
-7.0262
-7.02755
-7.02858
-7.02937
-7.03
-7.03053
-7.03103
-7.03156
-7.03217
-7.03293
-7.03388
-7.03508
-7.03657
-7.03842
-7.04066
-7.04337
-7.04662
-7.05045
-7.05494
-7.06015
-7.06614
-7.07295
-7.08063
-7.08922
-7.09873
-7.10919
-7.12063
-7.13303
-7.14641
-7.16076
-7.17606
-7.19231
-7.20948
-7.22754
-7.24648
-7.26626
-7.28685
-7.30822
-7.33033
-7.35314
-7.37662
-7.40073
-7.42541
-7.45064
-7.47635
-7.50251
-7.52906
-7.55594
-7.58311
-7.61051
-7.63807
-7.66573
-7.69342
-7.72107
-7.7486
-7.77593
-7.80295
-7.82959
-7.85573
-7.88127
-7.90609
-7.93007
-7.95307
-7.97497
-7.99562
-8.01486
-8.03254
-8.0485
-8.06256
-8.07455
-8.08429
-8.09158
-8.09625
-8.09809
-8.0969
-8.09248
-8.08463
-8.07314
-8.0578
-8.03841
-8.01477
-7.98666
-7.95388
-7.91624
-7.87354
-7.82559
-7.77221
-7.71321
-7.64843
-7.57771
-7.50088
-7.41781
-7.32835
-7.2324
-7.12982
-7.02052
-6.90442
-6.78145
-6.65156
-6.51472
-6.37091
-6.2201
-6.06229
-5.89749
-5.72573
-5.54705
-5.36152
-5.1692
-4.97019
-4.76459
-4.55253
-4.33414
-4.10957
-3.879
-3.6426
-3.40057
-3.15311
-2.90045
-2.64283
-2.38047
-2.11365
-1.84262
-1.56766
-1.28905
-1.00709
-0.722066
-0.434299
-0.14407
0.148323
0.442546
0.738265
1.03519
1.33305
1.63149
1.9302
2.22886
2.52718
2.82486
3.12161
3.41713
3.71114
4.00338
4.29357
4.58146
4.8668
5.14936
5.42891
5.70521
5.97807
6.24728
6.51264
6.77399
7.03114
7.28393
7.53222
7.77586
8.01472
8.24867
8.4776
8.7014
8.91995
9.13317
9.34099
9.54337
9.74024
9.9315
10.1171
10.2971
10.4714
10.6402
10.8037
10.962
11.1163
11.2638
11.4165
11.5241
-7.01107
-7.01323
-7.01669
-7.0198
-7.02212
-7.02387
-7.02522
-7.02628
-7.02714
-7.02789
-7.02862
-7.02939
-7.03027
-7.03132
-7.03261
-7.03418
-7.0361
-7.03841
-7.04118
-7.04445
-7.0483
-7.05276
-7.0579
-7.06378
-7.07042
-7.07787
-7.08617
-7.09533
-7.10538
-7.11633
-7.12819
-7.14095
-7.15462
-7.16919
-7.18465
-7.20098
-7.21817
-7.2362
-7.25504
-7.27467
-7.29507
-7.31621
-7.33806
-7.36059
-7.38377
-7.40755
-7.43191
-7.4568
-7.48219
-7.50803
-7.53426
-7.56086
-7.58775
-7.61489
-7.64222
-7.66967
-7.69718
-7.72468
-7.75207
-7.77929
-7.80624
-7.83282
-7.85893
-7.88447
-7.90931
-7.93333
-7.9564
-7.97839
-7.99914
-8.01851
-8.03633
-8.05245
-8.06669
-8.07887
-8.08881
-8.09632
-8.10122
-8.1033
-8.10236
-8.0982
-8.09061
-8.0794
-8.06434
-8.04524
-8.02189
-7.99408
-7.96161
-7.92429
-7.8819
-7.83427
-7.78122
-7.72255
-7.65811
-7.58773
-7.51125
-7.42853
-7.33943
-7.24384
-7.14164
-7.03273
-6.91703
-6.79447
-6.66501
-6.52859
-6.3852
-6.23481
-6.07742
-5.91306
-5.74173
-5.56349
-5.3784
-5.18653
-4.98797
-4.78282
-4.57121
-4.35328
-4.12917
-3.89906
-3.66312
-3.42155
-3.17456
-2.92236
-2.66518
-2.40328
-2.1369
-1.86632
-1.59179
-1.31361
-1.03206
-0.747454
-0.460084
-0.170235
0.121773
0.415614
0.71097
1.00757
1.3051
1.60324
1.90166
2.20005
2.49812
2.79557
3.0921
3.38742
3.68126
3.97334
4.26339
4.55118
4.83643
5.11892
5.39842
5.6747
5.94756
6.2168
6.48222
6.74364
7.00088
7.2538
7.50222
7.74601
7.98503
8.21916
8.44828
8.67227
8.89103
9.10444
9.31245
9.51502
9.71206
9.90352
10.0893
10.2695
10.444
10.6129
10.7764
10.9344
11.0878
11.2334
11.3834
11.4819
-7.00433
-7.00702
-7.01143
-7.01533
-7.01822
-7.02042
-7.02215
-7.02354
-7.02472
-7.02579
-7.02683
-7.02793
-7.02918
-7.03062
-7.03234
-7.03437
-7.03679
-7.03964
-7.04297
-7.04684
-7.05129
-7.05639
-7.06216
-7.06865
-7.07589
-7.08393
-7.09277
-7.10243
-7.11294
-7.1243
-7.13652
-7.14958
-7.1635
-7.17825
-7.19385
-7.21026
-7.22748
-7.24549
-7.26428
-7.28382
-7.3041
-7.32508
-7.34676
-7.36909
-7.39206
-7.41563
-7.43977
-7.46444
-7.48962
-7.51525
-7.54129
-7.5677
-7.59444
-7.62143
-7.64864
-7.67599
-7.70342
-7.73085
-7.75821
-7.78542
-7.81237
-7.83899
-7.86515
-7.89076
-7.91569
-7.93981
-7.96301
-7.98513
-8.00603
-8.02556
-8.04355
-8.05985
-8.07428
-8.08665
-8.09679
-8.10451
-8.10961
-8.11189
-8.11116
-8.10721
-8.09983
-8.08882
-8.07396
-8.05506
-8.03191
-8.00429
-7.97201
-7.93487
-7.89267
-7.84522
-7.79234
-7.73386
-7.66959
-7.59938
-7.52307
-7.44052
-7.3516
-7.25619
-7.15417
-7.04546
-6.92995
-6.8076
-6.67833
-6.54212
-6.39894
-6.24876
-6.09159
-5.92744
-5.75634
-5.57833
-5.39347
-5.20184
-5.00352
-4.79863
-4.58728
-4.36961
-4.14578
-3.91594
-3.68029
-3.439
-3.1923
-2.9404
-2.68352
-2.42192
-2.15585
-1.88557
-1.61134
-1.33347
-1.05223
-0.767921
-0.480843
-0.191289
0.100414
0.39395
0.689019
0.985347
1.28262
1.5805
1.87867
2.17683
2.47467
2.7719
3.06822
3.36335
3.65701
3.94893
4.23884
4.52648
4.81162
5.09401
5.37343
5.64966
5.92249
6.19171
6.45713
6.71857
6.97586
7.22883
7.47733
7.72121
7.96033
8.19458
8.42383
8.64796
8.86686
9.08043
9.28859
9.4913
9.68849
9.88009
10.066
10.2463
10.4209
10.5898
10.7531
10.9106
11.063
11.2065
11.3541
11.4448
-6.99873
-7.00183
-7.007
-7.01161
-7.01504
-7.01767
-7.01979
-7.02155
-7.02308
-7.0245
-7.0259
-7.02739
-7.02903
-7.0309
-7.03307
-7.03558
-7.0385
-7.04187
-7.04575
-7.05018
-7.0552
-7.06085
-7.06718
-7.07421
-7.08197
-7.09049
-7.09979
-7.10988
-7.12077
-7.13246
-7.14497
-7.15828
-7.1724
-7.18732
-7.20303
-7.21952
-7.23679
-7.25481
-7.27357
-7.29307
-7.31328
-7.33418
-7.35575
-7.37798
-7.40083
-7.42428
-7.4483
-7.47286
-7.49792
-7.52345
-7.54941
-7.57575
-7.60242
-7.62938
-7.65656
-7.6839
-7.71135
-7.73881
-7.76623
-7.7935
-7.82055
-7.84726
-7.87354
-7.89928
-7.92435
-7.94864
-7.972
-7.99429
-8.01537
-8.03508
-8.05326
-8.06975
-8.08436
-8.09691
-8.10723
-8.11512
-8.12039
-8.12284
-8.12226
-8.11845
-8.11121
-8.10032
-8.08559
-8.06679
-8.04373
-8.01621
-7.984
-7.94693
-7.90479
-7.85739
-7.80456
-7.7461
-7.68187
-7.61168
-7.53539
-7.45287
-7.36396
-7.26857
-7.16657
-7.05788
-6.9424
-6.82008
-6.69085
-6.55468
-6.41153
-6.2614
-6.10427
-5.94018
-5.76914
-5.5912
-5.40641
-5.21487
-5.01665
-4.81186
-4.60063
-4.38308
-4.15938
-3.9297
-3.69419
-3.45308
-3.20654
-2.95482
-2.69814
-2.43674
-2.17087
-1.9008
-1.6268
-1.34915
-1.06813
-0.784059
-0.497209
-0.2079
0.0835512
0.376836
0.671664
0.967761
1.26481
1.56246
1.8604
2.15833
2.45595
2.75297
3.04908
3.34401
3.63748
3.92922
4.21896
4.50646
4.79146
5.07373
5.35305
5.62919
5.90195
6.17111
6.4365
6.69792
6.95521
7.2082
7.45673
7.70065
7.93984
8.17416
8.40349
8.62771
8.84672
9.0604
9.26868
9.4715
9.66879
9.86049
10.0465
10.2268
10.4014
10.5702
10.7332
10.89
11.0414
11.1828
11.3282
11.4123
-6.99485
-6.99822
-7.00387
-7.00901
-7.01291
-7.01595
-7.01844
-7.02055
-7.02242
-7.02419
-7.02595
-7.02781
-7.02985
-7.03213
-7.03472
-7.03767
-7.04105
-7.04489
-7.04924
-7.05414
-7.05964
-7.06576
-7.07255
-7.08002
-7.08821
-7.09712
-7.10678
-7.1172
-7.12839
-7.14035
-7.15308
-7.16659
-7.18087
-7.19592
-7.21173
-7.22829
-7.2456
-7.26365
-7.28243
-7.30192
-7.32211
-7.34299
-7.36453
-7.38672
-7.40953
-7.43295
-7.45694
-7.48148
-7.50654
-7.53206
-7.55803
-7.58438
-7.61109
-7.6381
-7.66535
-7.69277
-7.72032
-7.74789
-7.77543
-7.80285
-7.83004
-7.85691
-7.88337
-7.90928
-7.93453
-7.959
-7.98255
-8.00503
-8.02629
-8.04619
-8.06455
-8.0812
-8.09597
-8.10868
-8.11914
-8.12716
-8.13254
-8.13508
-8.13459
-8.13085
-8.12366
-8.11281
-8.0981
-8.07932
-8.05625
-8.0287
-7.99646
-7.95934
-7.91713
-7.86966
-7.81675
-7.7582
-7.69386
-7.62357
-7.54717
-7.46453
-7.37551
-7.28
-7.17789
-7.06908
-6.9535
-6.83107
-6.70174
-6.56547
-6.42223
-6.27202
-6.11482
-5.95066
-5.77956
-5.60157
-5.41675
-5.22519
-5.02696
-4.82217
-4.61096
-4.39344
-4.16979
-3.94016
-3.70473
-3.4637
-3.21727
-2.96566
-2.70911
-2.44785
-2.18213
-1.91222
-1.63839
-1.36092
-1.0801
-0.796212
-0.509568
-0.220481
0.0707442
0.363801
0.658402
0.954278
1.2511
1.54851
1.84621
2.14391
2.4413
2.73809
3.03398
3.3287
3.62196
3.9135
4.20305
4.49037
4.77521
5.05733
5.33651
5.61253
5.88518
6.15426
6.41958
6.68095
6.9382
7.19116
7.43969
7.68362
7.92284
8.15719
8.38657
8.61085
8.82992
9.04368
9.25205
9.45495
9.65232
9.84407
10.0301
10.2104
10.3849
10.5535
10.7161
10.8722
11.0224
11.1619
11.3052
11.3837
-6.99297
-6.99645
-7.0023
-7.00778
-7.01202
-7.01539
-7.01819
-7.02061
-7.02279
-7.02487
-7.02696
-7.02915
-7.03153
-7.03416
-7.03711
-7.04044
-7.04419
-7.04841
-7.05315
-7.05844
-7.06431
-7.0708
-7.07794
-7.08574
-7.09424
-7.10344
-7.11336
-7.12402
-7.13541
-7.14756
-7.16046
-7.1741
-7.1885
-7.20365
-7.21954
-7.23618
-7.25355
-7.27165
-7.29046
-7.30999
-7.33021
-7.35111
-7.37268
-7.3949
-7.41775
-7.44122
-7.46526
-7.48986
-7.51498
-7.54059
-7.56664
-7.5931
-7.61993
-7.64706
-7.67445
-7.70204
-7.72974
-7.75749
-7.7852
-7.8128
-7.84018
-7.86725
-7.89389
-7.92
-7.94545
-7.9701
-7.99383
-8.01649
-8.03791
-8.05796
-8.07646
-8.09324
-8.10812
-8.12091
-8.13145
-8.13952
-8.14493
-8.14749
-8.14699
-8.14323
-8.136
-8.12509
-8.11029
-8.09141
-8.06822
-8.04054
-8.00815
-7.97086
-7.92848
-7.88082
-7.8277
-7.76895
-7.7044
-7.63388
-7.55726
-7.47439
-7.38514
-7.28941
-7.18707
-7.07805
-6.96225
-6.83961
-6.71009
-6.57362
-6.43021
-6.27982
-6.12246
-5.95814
-5.78691
-5.6088
-5.42388
-5.23222
-5.03392
-4.82908
-4.61782
-4.40029
-4.17664
-3.94702
-3.71162
-3.47064
-3.22428
-2.97276
-2.7163
-2.45516
-2.18958
-1.91981
-1.64615
-1.36885
-1.08821
-0.80452
-0.518094
-0.229235
0.0617552
0.354571
0.648929
0.944564
1.24113
1.53829
1.83573
2.13317
2.4303
2.72683
3.02247
3.31694
3.60995
3.90126
4.19059
4.47769
4.76233
5.04427
5.32327
5.59914
5.87165
6.1406
6.40581
6.66709
6.92427
7.17718
7.42566
7.66957
7.90878
8.14314
8.37253
8.59684
8.81595
9.02977
9.23819
9.44115
9.63856
9.83034
10.0164
10.1967
10.371
10.5393
10.7014
10.8567
11.0057
11.1434
11.2848
11.3587
-6.9931
-6.99655
-7.00238
-7.00798
-7.01244
-7.01603
-7.01907
-7.02172
-7.02415
-7.02647
-7.02881
-7.03127
-7.03391
-7.03682
-7.04005
-7.04366
-7.0477
-7.0522
-7.05721
-7.06277
-7.0689
-7.07563
-7.083
-7.09102
-7.09971
-7.10909
-7.11918
-7.12999
-7.14152
-7.15379
-7.16679
-7.18054
-7.19503
-7.21025
-7.22622
-7.24293
-7.26036
-7.27853
-7.29741
-7.317
-7.33729
-7.35827
-7.37993
-7.40224
-7.42519
-7.44875
-7.4729
-7.49761
-7.52286
-7.54861
-7.57482
-7.60146
-7.62846
-7.65578
-7.68337
-7.71114
-7.73904
-7.76699
-7.79491
-7.8227
-7.85027
-7.87753
-7.90436
-7.93064
-7.95625
-7.98105
-8.00492
-8.02769
-8.04923
-8.06936
-8.08792
-8.10474
-8.11964
-8.13244
-8.14295
-8.15097
-8.15632
-8.15878
-8.15817
-8.15427
-8.14688
-8.13579
-8.1208
-8.1017
-8.07828
-8.05035
-8.0177
-7.98013
-7.93747
-7.88951
-7.83609
-7.77703
-7.71216
-7.64133
-7.56439
-7.4812
-7.39165
-7.2956
-7.19297
-7.08365
-6.96756
-6.84465
-6.71486
-6.57815
-6.43449
-6.28387
-6.12631
-5.9618
-5.79039
-5.61213
-5.42707
-5.23529
-5.03689
-4.83197
-4.62066
-4.4031
-4.17943
-3.94982
-3.71446
-3.47353
-3.22724
-2.97582
-2.71948
-2.45847
-2.19304
-1.92345
-1.64997
-1.37287
-1.09245
-0.808999
-0.522823
-0.234219
0.0565076
0.349042
0.643127
0.938483
1.23475
1.5316
1.82874
2.12587
2.42269
2.71892
3.01425
3.30842
3.60115
3.89217
4.18122
4.46807
4.75246
5.03416
5.31295
5.58862
5.86094
6.12973
6.39479
6.65594
6.91301
7.16583
7.41423
7.65809
7.89725
8.13159
8.36097
8.58528
8.80441
9.01826
9.22672
9.42971
9.62714
9.81892
10.005
10.1851
10.3593
10.5273
10.6888
10.8433
10.9911
11.1271
11.2667
11.3369
-6.99509
-6.9984
-7.00403
-7.00959
-7.01412
-7.01782
-7.02098
-7.02377
-7.02635
-7.02884
-7.03135
-7.03398
-7.0368
-7.03989
-7.04329
-7.04708
-7.05128
-7.05595
-7.06111
-7.06681
-7.07308
-7.07995
-7.08743
-7.09557
-7.10437
-7.11385
-7.12403
-7.13492
-7.14652
-7.15886
-7.17192
-7.18573
-7.20027
-7.21556
-7.23159
-7.24836
-7.26586
-7.28411
-7.30307
-7.32276
-7.34316
-7.36425
-7.38601
-7.40844
-7.43151
-7.45521
-7.4795
-7.50437
-7.5298
-7.55574
-7.58215
-7.60899
-7.6362
-7.66373
-7.69152
-7.71949
-7.74758
-7.77571
-7.8038
-7.83175
-7.85947
-7.88687
-7.91381
-7.9402
-7.96589
-7.99076
-8.01467
-8.03747
-8.059
-8.0791
-8.09761
-8.11435
-8.12915
-8.14182
-8.15217
-8.16002
-8.16517
-8.16741
-8.16655
-8.16239
-8.15472
-8.14333
-8.12802
-8.10859
-8.08483
-8.05654
-8.02352
-7.98559
-7.94254
-7.8942
-7.84039
-7.78094
-7.71568
-7.64447
-7.56715
-7.48359
-7.39367
-7.29727
-7.19429
-7.08464
-6.96823
-6.84502
-6.71493
-6.57795
-6.43403
-6.28319
-6.1254
-5.96071
-5.78912
-5.61071
-5.42552
-5.23365
-5.03517
-4.8302
-4.61886
-4.40129
-4.17764
-3.94808
-3.71278
-3.47195
-3.22578
-2.97449
-2.71831
-2.45748
-2.19226
-1.92289
-1.64965
-1.37282
-1.09268
-0.809527
-0.523656
-0.235361
0.0550324
0.34722
0.640977
0.935987
1.23188
1.52835
1.82512
2.12187
2.41832
2.71418
3.00915
3.30295
3.59533
3.886
4.17473
4.46126
4.74535
5.02676
5.30529
5.5807
5.8528
6.12137
6.38624
6.64722
6.90414
7.15682
7.40512
7.64889
7.88798
8.12226
8.35161
8.5759
8.79503
9.00888
9.21735
9.42036
9.6178
9.80956
9.99553
10.1756
10.3495
10.5171
10.6781
10.8318
10.9784
11.1127
11.2506
11.318
-6.99873
-7.00183
-7.00715
-7.01252
-7.01697
-7.02065
-7.02381
-7.02664
-7.02925
-7.03179
-7.03436
-7.03705
-7.03993
-7.04308
-7.04655
-7.05039
-7.05464
-7.05936
-7.06457
-7.07032
-7.07663
-7.08353
-7.09105
-7.09921
-7.10803
-7.11753
-7.12772
-7.13862
-7.15024
-7.16259
-7.17568
-7.18951
-7.20409
-7.21942
-7.23551
-7.25233
-7.26991
-7.28822
-7.30727
-7.32704
-7.34753
-7.36873
-7.39061
-7.41317
-7.43638
-7.46024
-7.48471
-7.50976
-7.53537
-7.5615
-7.5881
-7.61512
-7.64251
-7.6702
-7.69814
-7.72625
-7.75446
-7.78269
-7.81085
-7.83886
-7.86662
-7.89403
-7.92097
-7.94733
-7.97297
-7.99776
-8.02156
-8.04423
-8.0656
-8.08551
-8.10381
-8.12032
-8.13485
-8.14724
-8.15729
-8.16481
-8.16962
-8.1715
-8.17027
-8.16571
-8.15763
-8.14583
-8.1301
-8.11024
-8.08604
-8.05732
-8.02386
-7.98548
-7.94199
-7.89321
-7.83897
-7.77909
-7.71341
-7.64178
-7.56406
-7.48012
-7.38982
-7.29306
-7.18973
-7.07975
-6.96304
-6.83953
-6.70918
-6.57194
-6.4278
-6.27674
-6.11878
-5.95393
-5.78221
-5.60369
-5.41843
-5.2265
-5.028
-4.82303
-4.61172
-4.39421
-4.17065
-3.9412
-3.70605
-3.46538
-3.2194
-2.96833
-2.7124
-2.45184
-2.18691
-1.91785
-1.64495
-1.36847
-1.0887
-0.805938
-0.520447
-0.232556
0.0574039
0.34917
0.642519
0.937084
1.2325
1.52851
1.82482
2.12112
2.41712
2.71252
3.00704
3.30041
3.59236
3.88262
4.17095
4.45709
4.74081
5.02188
5.30008
5.57518
5.847
6.11531
6.37994
6.6407
6.89743
7.14994
7.39809
7.64174
7.88072
8.11492
8.34421
8.56847
8.78757
9.00141
9.20989
9.4129
9.61032
9.80205
9.98795
10.1679
10.3416
10.5088
10.6692
10.822
10.9675
11.1003
11.2364
11.3017
-7.0038
-7.00665
-7.01157
-7.01663
-7.02088
-7.0244
-7.02743
-7.03013
-7.03265
-7.0351
-7.03759
-7.0402
-7.04302
-7.04611
-7.04952
-7.05331
-7.05753
-7.0622
-7.06737
-7.07307
-7.07933
-7.08618
-7.09364
-7.10175
-7.11052
-7.11997
-7.13011
-7.14097
-7.15255
-7.16487
-7.17793
-7.19174
-7.20631
-7.22164
-7.23773
-7.25459
-7.27219
-7.29055
-7.30965
-7.32949
-7.35005
-7.37134
-7.39334
-7.41603
-7.43938
-7.46337
-7.48797
-7.51315
-7.53887
-7.56509
-7.59176
-7.61885
-7.64629
-7.67401
-7.70197
-7.73007
-7.75823
-7.78639
-7.81446
-7.84234
-7.86996
-7.8972
-7.92395
-7.95009
-7.97548
-8
-8.0235
-8.04584
-8.06687
-8.08642
-8.10433
-8.12043
-8.13455
-8.1465
-8.1561
-8.16316
-8.16749
-8.1689
-8.16718
-8.16213
-8.15356
-8.14127
-8.12504
-8.10468
-8.07999
-8.05078
-8.01684
-7.97799
-7.93403
-7.88479
-7.8301
-7.76979
-7.7037
-7.63168
-7.55358
-7.46927
-7.37862
-7.28153
-7.1779
-7.06763
-6.95066
-6.82691
-6.69635
-6.55893
-6.41463
-6.26345
-6.10538
-5.94045
-5.7687
-5.59016
-5.40491
-5.21303
-5.0146
-4.80973
-4.59856
-4.38122
-4.15785
-3.92863
-3.69373
-3.45334
-3.20767
-2.95694
-2.70136
-2.44119
-2.17667
-1.90804
-1.6356
-1.35959
-1.08032
-0.798031
-0.51304
-0.225683
0.0637274
0.354986
0.647816
0.941807
1.23665
1.5321
1.82784
2.12358
2.41902
2.71388
3.00786
3.30071
3.59214
3.88191
4.16976
4.45544
4.73872
5.01938
5.29718
5.57192
5.84338
6.11138
6.37572
6.63622
6.89271
7.14501
7.39298
7.63646
7.87532
8.10941
8.33862
8.56281
8.78188
8.9957
9.20417
9.40716
9.60457
9.79626
9.98207
10.1618
10.3353
10.5021
10.6619
10.8139
10.9583
11.0897
11.2241
11.288
-7.01011
-7.01271
-7.01721
-7.02188
-7.02578
-7.02897
-7.03169
-7.03409
-7.03633
-7.03852
-7.04078
-7.04319
-7.04582
-7.04875
-7.05201
-7.05566
-7.05973
-7.06428
-7.06932
-7.07489
-7.08102
-7.08774
-7.09507
-7.10304
-7.11168
-7.12099
-7.13101
-7.14174
-7.15321
-7.16542
-7.17838
-7.19211
-7.20659
-7.22184
-7.23787
-7.25466
-7.27224
-7.29058
-7.30968
-7.32953
-7.35011
-7.37142
-7.39343
-7.41612
-7.43947
-7.46343
-7.48799
-7.51311
-7.53874
-7.56485
-7.59139
-7.61832
-7.64558
-7.67312
-7.70087
-7.72874
-7.75664
-7.7845
-7.81224
-7.83978
-7.86702
-7.89386
-7.92019
-7.94588
-7.97081
-7.99484
-8.01784
-8.03966
-8.06015
-8.07916
-8.09652
-8.11206
-8.12562
-8.137
-8.14604
-8.15253
-8.1563
-8.15714
-8.15487
-8.14928
-8.14017
-8.12734
-8.11059
-8.08973
-8.06454
-8.03485
-8.00044
-7.96113
-7.91674
-7.86709
-7.812
-7.75132
-7.68488
-7.61252
-7.53411
-7.44951
-7.3586
-7.26128
-7.15743
-7.04698
-6.92985
-6.80597
-6.67531
-6.53782
-6.39348
-6.24229
-6.08425