/*--------------------------------*- C++ -*----------------------------------*\
| =========                 |                                                 |
| \\      /  F ield         | OpenFOAM: The Open Source CFD Toolbox           |
|  \\    /   O peration     | Version:  4.1                                   |
|   \\  /    A nd           | Web:      www.OpenFOAM.org                      |
|    \\/     M anipulation  |                                                 |
\*---------------------------------------------------------------------------*/
FoamFile
{
    version     2.0;
    format      ascii;
    class       surfaceScalarField;
    location    "298";
    object      phi;
}
// * * * * * * * * * * * * * * * * * * * * * * * * * * * * * * * * * * * * * //

dimensions      [0 3 -1 0 0 0 0];

internalField   nonuniform List<scalar> 
24170
(
3.05907e-06
7.48197e-08
2.95467e-06
1.04405e-07
2.85725e-06
9.7411e-08
2.76453e-06
9.27284e-08
2.67732e-06
8.72009e-08
2.599e-06
7.83195e-08
2.53066e-06
6.8344e-08
2.47155e-06
5.91071e-08
2.4205e-06
5.10568e-08
2.37635e-06
4.41413e-08
2.33814e-06
3.8218e-08
2.305e-06
3.31367e-08
2.27626e-06
2.87384e-08
2.25137e-06
2.48934e-08
2.23002e-06
2.1346e-08
2.21177e-06
1.82523e-08
2.19632e-06
1.54521e-08
1.13502e-08
2.18497e-06
3.51041e-06
2.08509e-08
3.52828e-06
8.65303e-08
3.5346e-06
9.10945e-08
3.53272e-06
9.46099e-08
3.52364e-06
9.62707e-08
3.50883e-06
9.31365e-08
3.48963e-06
8.7539e-08
3.46733e-06
8.14047e-08
3.44307e-06
7.5315e-08
3.41778e-06
6.94306e-08
3.39218e-06
6.38225e-08
3.36678e-06
5.85408e-08
3.34195e-06
5.35638e-08
3.31798e-06
4.88683e-08
3.29505e-06
4.42743e-08
3.27339e-06
3.99098e-08
3.25391e-06
3.49308e-08
2.80613e-08
3.2372e-06
3.81757e-06
1.54736e-08
3.83013e-06
7.39718e-08
3.8403e-06
8.09193e-08
3.851e-06
8.39154e-08
3.86077e-06
8.65048e-08
3.86838e-06
8.55183e-08
3.87373e-06
8.21917e-08
3.87703e-06
7.81065e-08
3.87854e-06
7.3806e-08
3.87854e-06
6.9429e-08
3.8773e-06
6.50583e-08
3.87508e-06
6.07647e-08
3.87208e-06
5.65597e-08
3.86853e-06
5.24224e-08
3.86457e-06
4.8237e-08
3.86056e-06
4.39127e-08
3.85657e-06
3.89237e-08
3.26887e-08
3.85194e-06
4.20345e-06
1.65801e-08
4.21507e-06
6.23509e-08
4.22329e-06
7.26971e-08
4.23089e-06
7.6316e-08
4.23811e-06
7.92876e-08
4.24433e-06
7.92921e-08
4.24966e-06
7.68658e-08
4.25432e-06
7.34477e-08
4.25842e-06
6.97042e-08
4.26203e-06
6.58216e-08
4.2652e-06
6.18873e-08
4.26799e-06
5.79684e-08
4.27047e-06
5.4079e-08
4.2727e-06
5.01917e-08
4.27473e-06
4.62069e-08
4.27665e-06
4.20013e-08
4.27825e-06
3.73202e-08
3.18866e-08
4.27905e-06
4.63768e-06
1.62117e-08
4.64712e-06
5.2908e-08
4.65389e-06
6.59212e-08
4.65984e-06
7.0372e-08
4.66578e-06
7.33442e-08
4.67129e-06
7.37874e-08
4.67625e-06
7.19004e-08
4.68079e-06
6.89107e-08
4.68497e-06
6.5519e-08
4.68885e-06
6.19415e-08
4.69247e-06
5.82673e-08
4.69588e-06
5.45612e-08
4.69912e-06
5.0843e-08
4.70222e-06
4.70895e-08
4.7052e-06
4.32247e-08
4.70805e-06
3.91559e-08
4.71061e-06
3.47543e-08
2.99165e-08
4.71258e-06
5.11602e-06
1.47828e-08
5.12361e-06
4.53248e-08
5.13002e-06
5.95116e-08
5.13574e-06
6.46487e-08
5.14152e-06
6.75636e-08
5.147e-06
6.83024e-08
5.152e-06
6.69031e-08
5.15657e-06
6.43367e-08
5.16081e-06
6.12811e-08
5.16477e-06
5.79798e-08
5.16851e-06
5.45329e-08
5.17206e-06
5.10087e-08
5.17547e-06
4.74374e-08
5.17875e-06
4.38073e-08
5.1819e-06
4.00718e-08
5.18488e-06
3.61734e-08
5.18758e-06
3.20591e-08
2.77224e-08
5.18977e-06
5.64261e-06
1.31803e-08
5.64907e-06
3.88659e-08
5.65559e-06
5.29895e-08
5.6615e-06
5.87405e-08
5.66735e-06
6.17166e-08
5.67294e-06
6.27099e-08
5.67809e-06
6.17543e-08
5.68283e-06
5.95952e-08
5.68725e-06
5.68659e-08
5.69139e-06
5.38339e-08
5.69531e-06
5.06133e-08
5.69904e-06
4.72775e-08
5.70261e-06
4.3868e-08
5.70603e-06
4.03881e-08
5.70928e-06
3.68188e-08
5.71232e-06
3.31355e-08
5.71505e-06
2.93357e-08
2.54615e-08
5.71731e-06
4.40729e-06
1.2005e-08
4.41138e-06
3.47687e-08
4.41607e-06
4.83068e-08
4.42045e-06
5.43619e-08
4.42471e-06
5.74501e-08
4.42884e-06
5.85862e-08
4.43269e-06
5.7895e-08
4.43628e-06
5.60137e-08
4.43962e-06
5.35213e-08
4.44277e-06
5.06882e-08
4.44574e-06
4.76389e-08
4.44857e-06
4.44525e-08
4.45126e-06
4.11781e-08
4.45381e-06
3.78299e-08
4.45623e-06
3.44064e-08
4.45846e-06
3.09032e-08
4.46045e-06
2.73395e-08
2.37709e-08
4.46214e-06
5.1411e-06
1.07659e-08
5.14519e-06
3.06756e-08
5.15012e-06
4.33766e-08
5.1549e-06
4.95824e-08
5.15961e-06
5.27437e-08
5.1642e-06
5.39953e-08
5.16854e-06
5.35546e-08
5.1726e-06
5.19547e-08
5.17641e-06
4.97133e-08
5.17999e-06
4.70999e-08
5.18339e-06
4.42463e-08
5.1866e-06
4.12372e-08
5.18965e-06
3.81287e-08
5.19253e-06
3.49471e-08
5.19523e-06
3.17063e-08
5.19772e-06
2.84196e-08
5.19994e-06
2.51191e-08
2.18665e-08
5.20184e-06
5.99709e-06
9.46482e-09
6.00113e-06
2.66413e-08
6.00623e-06
3.82742e-08
6.01138e-06
4.44339e-08
6.01652e-06
4.76021e-08
6.02159e-06
4.89266e-08
6.02644e-06
4.87078e-08
6.03101e-06
4.73815e-08
6.03533e-06
4.53977e-08
6.03941e-06
4.30203e-08
6.04326e-06
4.03864e-08
6.04692e-06
3.75843e-08
6.05037e-06
3.46763e-08
6.05362e-06
3.16997e-08
6.05664e-06
2.86812e-08
6.05941e-06
2.56472e-08
6.0619e-06
2.26361e-08
1.97084e-08
6.06406e-06
6.99561e-06
8.12398e-09
6.99954e-06
2.27096e-08
7.00475e-06
3.3062e-08
7.01023e-06
3.89541e-08
7.01578e-06
4.20495e-08
7.02132e-06
4.33938e-08
7.02667e-06
4.33503e-08
7.03178e-06
4.22757e-08
7.03663e-06
4.05482e-08
7.04123e-06
3.8418e-08
7.04559e-06
3.60245e-08
7.04972e-06
3.34584e-08
7.05361e-06
3.0786e-08
7.05726e-06
2.80532e-08
7.06064e-06
2.52958e-08
7.06374e-06
2.2548e-08
7.06653e-06
1.98491e-08
1.72544e-08
7.06898e-06
8.16036e-06
6.77566e-09
8.16418e-06
1.88942e-08
8.16944e-06
2.78017e-08
8.1752e-06
3.31972e-08
8.18113e-06
3.61153e-08
8.18711e-06
3.74163e-08
8.19297e-06
3.74888e-08
8.19861e-06
3.66316e-08
8.20401e-06
3.51515e-08
8.20915e-06
3.32752e-08
8.21404e-06
3.11403e-08
8.21866e-06
2.88375e-08
8.22301e-06
2.64344e-08
8.22708e-06
2.39819e-08
8.23086e-06
2.15206e-08
8.23432e-06
1.90879e-08
8.23745e-06
1.67199e-08
1.44652e-08
8.24023e-06
9.51906e-06
5.44469e-09
9.52276e-06
1.51942e-08
9.52802e-06
2.25444e-08
9.53399e-06
2.72234e-08
9.54027e-06
2.98322e-08
9.54668e-06
3.10132e-08
9.55303e-06
3.11338e-08
9.55921e-06
3.04482e-08
9.56517e-06
2.91984e-08
9.57086e-06
2.75784e-08
9.57629e-06
2.57174e-08
9.58142e-06
2.37027e-08
9.58626e-06
2.16001e-08
9.59078e-06
1.94608e-08
9.59497e-06
1.73263e-08
9.59883e-06
1.52328e-08
9.60234e-06
1.32115e-08
1.13029e-08
9.6055e-06
1.1104e-05
4.14416e-09
1.11076e-05
1.15973e-08
1.11128e-05
1.73143e-08
1.1119e-05
2.10826e-08
1.11256e-05
2.32317e-08
1.11324e-05
2.41997e-08
1.11392e-05
2.42934e-08
1.1146e-05
2.37241e-08
1.11525e-05
2.26776e-08
1.11587e-05
2.13096e-08
1.11647e-05
1.97331e-08
1.11704e-05
1.80273e-08
1.11758e-05
1.6252e-08
1.11808e-05
1.44544e-08
1.11854e-05
1.26726e-08
1.11897e-05
1.09386e-08
1.11936e-05
9.27763e-09
7.72227e-09
1.11972e-05
1.29529e-05
2.87359e-09
1.29564e-05
8.07378e-09
1.29616e-05
1.20981e-08
1.29679e-05
1.47922e-08
1.29748e-05
1.63271e-08
1.29821e-05
1.69751e-08
1.29894e-05
1.69605e-08
1.29967e-05
1.64457e-08
1.30038e-05
1.55665e-08
1.30107e-05
1.44384e-08
1.30172e-05
1.31506e-08
1.30235e-05
1.17684e-08
1.30294e-05
1.03412e-08
1.3035e-05
8.90816e-09
1.30401e-05
7.50048e-09
1.30449e-05
6.14352e-09
1.30493e-05
4.85575e-09
3.66236e-09
1.30534e-05
1.51097e-05
1.61678e-09
1.51132e-05
4.56487e-09
1.51185e-05
6.83072e-09
1.5125e-05
8.30948e-09
1.51322e-05
9.08165e-09
1.51399e-05
9.2952e-09
1.51478e-05
9.08728e-09
1.51556e-05
8.5634e-09
1.51634e-05
7.81094e-09
1.51709e-05
6.90463e-09
1.51782e-05
5.90422e-09
1.51851e-05
4.85503e-09
1.51916e-05
3.79172e-09
1.51978e-05
2.74156e-09
1.52036e-05
1.72608e-09
1.5209e-05
7.62326e-10
1.5214e-05
-1.38338e-10
-9.57961e-10
1.52186e-05
1.76257e-05
3.39256e-10
1.76293e-05
9.62969e-10
1.76348e-05
1.36679e-09
1.76416e-05
1.48812e-09
1.76493e-05
1.3552e-09
1.76576e-05
1.02143e-09
1.76662e-05
5.377e-10
1.76748e-05
-5.39776e-11
1.76833e-05
-7.16371e-10
1.76916e-05
-1.41731e-09
1.76997e-05
-2.13099e-09
1.77074e-05
-2.83743e-09
1.77147e-05
-3.52103e-09
1.77216e-05
-4.16946e-09
1.77281e-05
-4.77322e-09
1.77342e-05
-5.3249e-09
1.77398e-05
-5.82071e-09
-6.24987e-09
1.77451e-05
1.78274e-05
-8.58763e-10
1.78308e-05
-2.4345e-09
1.7836e-05
-3.81954e-09
1.78425e-05
-5.03381e-09
1.78499e-05
-6.07649e-09
1.78579e-05
-6.97269e-09
1.78662e-05
-7.75387e-09
1.78746e-05
-8.4386e-09
1.78829e-05
-9.03646e-09
1.78911e-05
-9.55629e-09
1.78989e-05
-1.00066e-08
1.79065e-05
-1.03936e-08
1.79137e-05
-1.07213e-08
1.79205e-05
-1.09926e-08
1.7927e-05
-1.12099e-08
1.7933e-05
-1.13754e-08
1.79387e-05
-1.14919e-08
-1.15551e-08
1.7944e-05
1.58824e-05
-1.92425e-09
1.58854e-05
-5.45533e-09
1.58901e-05
-8.4499e-09
1.58959e-05
-1.08599e-08
1.59025e-05
-1.26963e-08
1.59096e-05
-1.40758e-08
1.5917e-05
-1.51129e-08
1.59244e-05
-1.58744e-08
1.59318e-05
-1.64083e-08
1.5939e-05
-1.67619e-08
1.59459e-05
-1.69759e-08
1.59526e-05
-1.70798e-08
1.5959e-05
-1.70947e-08
1.5965e-05
-1.70368e-08
1.59708e-05
-1.69191e-08
1.59761e-05
-1.67511e-08
1.59812e-05
-1.65414e-08
-1.62902e-08
1.59859e-05
1.41497e-05
-2.91361e-09
1.41525e-05
-8.27558e-09
1.41568e-05
-1.28077e-08
1.41623e-05
-1.63149e-08
1.41684e-05
-1.88256e-08
1.41749e-05
-2.06004e-08
1.41817e-05
-2.18405e-08
1.41884e-05
-2.26436e-08
1.41951e-05
-2.30925e-08
1.42016e-05
-2.32743e-08
1.42079e-05
-2.32593e-08
1.42139e-05
-2.30963e-08
1.42197e-05
-2.28212e-08
1.42251e-05
-2.24623e-08
1.42302e-05
-2.20412e-08
1.4235e-05
-2.15739e-08
1.42396e-05
-2.10728e-08
-2.05416e-08
1.42438e-05
1.26059e-05
-3.83336e-09
1.26087e-05
-1.09963e-08
1.26129e-05
-1.70827e-08
1.26182e-05
-2.15848e-08
1.2624e-05
-2.46351e-08
1.26301e-05
-2.67272e-08
1.26364e-05
-2.81181e-08
1.26427e-05
-2.89133e-08
1.26488e-05
-2.92407e-08
1.26548e-05
-2.92336e-08
1.26605e-05
-2.89867e-08
1.2666e-05
-2.8563e-08
1.26712e-05
-2.8011e-08
1.26761e-05
-2.73697e-08
1.26807e-05
-2.66679e-08
1.26851e-05
-2.59267e-08
1.26892e-05
-2.51617e-08
-2.43798e-08
1.2693e-05
1.12306e-05
-4.6209e-09
1.12333e-05
-1.36833e-08
1.12376e-05
-2.14468e-08
1.12428e-05
-2.67649e-08
1.12484e-05
-3.01871e-08
1.12542e-05
-3.25421e-08
1.12601e-05
-3.40426e-08
1.1266e-05
-3.47774e-08
1.12717e-05
-3.49442e-08
1.12772e-05
-3.47271e-08
1.12824e-05
-3.42387e-08
1.12874e-05
-3.35532e-08
1.12921e-05
-3.27308e-08
1.12966e-05
-3.18193e-08
1.13008e-05
-3.08537e-08
1.13047e-05
-2.98578e-08
1.13084e-05
-2.88487e-08
-2.78331e-08
1.13118e-05
1.00051e-05
-5.1451e-09
1.00078e-05
-1.63637e-08
1.00124e-05
-2.60486e-08
1.00176e-05
-3.19047e-08
1.00229e-05
-3.55201e-08
1.00284e-05
-3.80852e-08
1.0034e-05
-3.96352e-08
1.00395e-05
-4.02575e-08
1.00448e-05
-4.02402e-08
1.00499e-05
-3.98056e-08
1.00547e-05
-3.90736e-08
1.00593e-05
-3.81286e-08
1.00636e-05
-3.70429e-08
1.00677e-05
-3.58733e-08
1.00715e-05
-3.4659e-08
1.0075e-05
-3.34272e-08
1.00784e-05
-3.21975e-08
-3.09809e-08
1.00815e-05
8.91323e-06
-5.28105e-09
8.916e-06
-1.91306e-08
8.92078e-06
-3.0823e-08
8.92577e-06
-3.68956e-08
8.93094e-06
-4.06906e-08
8.9363e-06
-4.34449e-08
8.94161e-06
-4.49465e-08
8.94674e-06
-4.53879e-08
8.95166e-06
-4.51647e-08
8.95637e-06
-4.45111e-08
8.96084e-06
-4.35403e-08
8.96505e-06
-4.23453e-08
8.96902e-06
-4.10092e-08
8.97274e-06
-3.95965e-08
8.97623e-06
-3.81502e-08
8.9795e-06
-3.66993e-08
8.98257e-06
-3.52599e-08
-3.38301e-08
8.98542e-06
7.93997e-06
-4.58396e-09
7.94347e-06
-2.26294e-08
7.94814e-06
-3.54977e-08
7.95265e-06
-4.13993e-08
7.95762e-06
-4.56612e-08
7.9629e-06
-4.87255e-08
7.9681e-06
-5.01469e-08
7.97308e-06
-5.03714e-08
7.97784e-06
-4.9919e-08
7.98235e-06
-4.90254e-08
7.98661e-06
-4.77999e-08
7.99061e-06
-4.6346e-08
7.99436e-06
-4.47562e-08
7.99786e-06
-4.31008e-08
8.00114e-06
-4.1427e-08
8.00421e-06
-3.97662e-08
8.00709e-06
-3.8144e-08
-3.65735e-08
8.00983e-06
7.07071e-06
-9.6276e-10
7.07639e-06
-2.83122e-08
7.08147e-06
-4.05716e-08
7.08586e-06
-4.57873e-08
7.09083e-06
-5.06391e-08
7.09611e-06
-5.40055e-08
7.1013e-06
-5.53377e-08
7.10631e-06
-5.53767e-08
7.11111e-06
-5.47162e-08
7.11566e-06
-5.35773e-08
7.11994e-06
-5.20813e-08
7.12394e-06
-5.03497e-08
7.12768e-06
-4.84884e-08
7.13115e-06
-4.65727e-08
7.13438e-06
-4.4657e-08
7.13739e-06
-4.27736e-08
7.14018e-06
-4.09367e-08
-3.91023e-08
7.14271e-06
6.29323e-06
8.32129e-09
6.30157e-06
-3.66579e-08
6.30862e-06
-4.76146e-08
6.31509e-06
-5.22582e-08
6.32175e-06
-5.72971e-08
6.32805e-06
-6.03069e-08
6.33383e-06
-6.11206e-08
6.33924e-06
-6.07808e-08
6.34434e-06
-5.98171e-08
6.34912e-06
-5.83657e-08
6.35359e-06
-5.65415e-08
6.35771e-06
-5.44778e-08
6.36152e-06
-5.22915e-08
6.36501e-06
-5.00618e-08
6.3682e-06
-4.78533e-08
6.37113e-06
-4.57059e-08
6.37385e-06
-4.36536e-08
-4.17134e-08
6.37646e-06
5.60762e-06
1.56021e-08
5.61539e-06
-4.44246e-08
5.62314e-06
-5.53637e-08
5.63273e-06
-6.18528e-08
5.6434e-06
-6.79665e-08
5.65355e-06
-7.04541e-08
5.66261e-06
-7.01777e-08
5.67057e-06
-6.8748e-08
5.67751e-06
-6.67515e-08
5.68346e-06
-6.43178e-08
5.68848e-06
-6.15633e-08
5.69264e-06
-5.86369e-08
5.696e-06
-5.56541e-08
5.69864e-06
-5.27013e-08
5.70064e-06
-4.98458e-08
5.70208e-06
-4.71505e-08
5.70305e-06
-4.4627e-08
-4.23426e-08
5.70368e-06
5.04169e-06
-2.37823e-08
5.05635e-06
-5.90854e-08
5.06723e-06
-6.62376e-08
5.07698e-06
-7.16026e-08
5.08582e-06
-7.68068e-08
5.09242e-06
-7.70563e-08
5.0959e-06
-7.36604e-08
5.09601e-06
-6.88549e-08
5.09294e-06
-6.36786e-08
5.0871e-06
-5.84804e-08
5.07899e-06
-5.34485e-08
5.06906e-06
-4.87083e-08
5.05773e-06
-4.43267e-08
5.04536e-06
-4.03319e-08
5.03226e-06
-3.67404e-08
5.01868e-06
-3.35751e-08
5.00491e-06
-3.08568e-08
-2.90637e-08
4.99163e-06
4.43277e-06
4.37368e-06
4.30744e-06
4.23584e-06
4.15903e-06
4.08198e-06
4.00832e-06
3.93946e-06
3.87578e-06
3.8173e-06
3.76386e-06
3.71515e-06
3.67082e-06
3.63049e-06
3.59375e-06
3.56017e-06
3.52932e-06
3.50025e-06
5.38399e-09
-5.38495e-09
1.67469e-08
-1.13651e-08
3.02369e-08
-1.34912e-08
4.35191e-08
-1.32842e-08
5.52123e-08
-1.16941e-08
6.46063e-08
-9.39604e-09
7.14383e-08
-6.83285e-09
7.57008e-08
-4.26458e-09
7.7535e-08
-1.83484e-09
7.71648e-08
3.6797e-10
7.49114e-08
2.25291e-09
7.11363e-08
3.77278e-09
6.61575e-08
4.97836e-09
6.01916e-08
5.96353e-09
5.33621e-08
6.82907e-09
4.56935e-08
7.66623e-09
3.71478e-08
8.54503e-09
2.76357e-08
9.50953e-09
1.70524e-08
1.05824e-08
5.29813e-09
1.17515e-08
-7.78083e-09
1.30779e-08
-2.24289e-08
1.46452e-08
-3.88177e-08
1.63877e-08
-5.70984e-08
1.8278e-08
-7.74324e-08
2.0333e-08
-9.99767e-08
2.25417e-08
-1.24855e-07
2.48778e-08
-1.52161e-07
2.73028e-08
-1.81931e-07
2.97698e-08
-2.14158e-07
3.22243e-08
-2.48766e-07
3.46076e-08
-2.85628e-07
3.68592e-08
-3.24565e-07
3.89363e-08
-3.65378e-07
4.08108e-08
-4.07841e-07
4.24632e-08
-4.51723e-07
4.38798e-08
-4.96778e-07
4.50542e-08
-5.4277e-07
4.59897e-08
-5.89468e-07
4.66976e-08
-6.36665e-07
4.71942e-08
-6.84165e-07
4.75001e-08
-7.31806e-07
4.76374e-08
-7.79436e-07
4.763e-08
-8.26941e-07
4.75012e-08
-8.74215e-07
4.72739e-08
-9.21189e-07
4.69712e-08
-9.67812e-07
4.66218e-08
-1.01408e-06
4.62604e-08
-1.05999e-06
4.59155e-08
-1.10558e-06
4.55893e-08
-1.15086e-06
4.52762e-08
-1.19584e-06
4.49749e-08
-1.24052e-06
4.46836e-08
-1.28492e-06
4.44005e-08
-1.32905e-06
4.41242e-08
-1.3729e-06
4.38523e-08
-1.41649e-06
4.35829e-08
-1.4598e-06
4.33128e-08
-1.50284e-06
4.30399e-08
-1.5456e-06
4.27606e-08
-1.58808e-06
4.24723e-08
-1.63025e-06
4.21714e-08
-1.6721e-06
4.18554e-08
-1.71363e-06
4.15208e-08
-1.75479e-06
4.11649e-08
-1.79558e-06
4.07846e-08
-1.83596e-06
4.03776e-08
-1.8759e-06
3.99408e-08
-1.91537e-06
3.94724e-08
-1.95434e-06
3.89696e-08
-1.99277e-06
3.8431e-08
-2.03063e-06
3.78542e-08
-2.06787e-06
3.7238e-08
-2.10445e-06
3.65805e-08
-2.14033e-06
3.58811e-08
-2.17547e-06
3.51382e-08
-2.20982e-06
3.43515e-08
-2.24335e-06
3.35197e-08
-2.27599e-06
3.26431e-08
-2.30771e-06
3.17207e-08
-2.33847e-06
3.0753e-08
-2.36821e-06
2.97394e-08
-2.39689e-06
2.86809e-08
-2.42446e-06
2.75769e-08
-2.45089e-06
2.64286e-08
-2.47613e-06
2.52357e-08
-2.50013e-06
2.39994e-08
-2.52285e-06
2.27199e-08
-2.54425e-06
2.13981e-08
-2.56428e-06
2.00344e-08
-2.58291e-06
1.86288e-08
-2.60009e-06
1.71809e-08
-2.61579e-06
1.56899e-08
-2.62994e-06
1.41534e-08
-2.64252e-06
1.25678e-08
-2.65345e-06
1.09275e-08
-2.66268e-06
9.22593e-09
-2.67013e-06
7.45344e-09
-2.67573e-06
5.59531e-09
-2.67937e-06
3.63386e-09
-2.68095e-06
1.58155e-09
-2.68051e-06
-4.47775e-10
-2.67823e-06
-2.27502e-09
-2.6743e-06
-3.93334e-09
-2.66875e-06
-5.55765e-09
-2.66157e-06
-7.17332e-09
-2.65278e-06
-8.79111e-09
-2.64237e-06
-1.04125e-08
-2.63034e-06
-1.20363e-08
-2.61668e-06
-1.36614e-08
-2.6014e-06
-1.52854e-08
-2.58449e-06
-1.69068e-08
-2.56597e-06
-1.85229e-08
-2.54584e-06
-2.01324e-08
-2.52411e-06
-2.17325e-08
-2.50079e-06
-2.3322e-08
-2.4759e-06
-2.4898e-08
-2.44944e-06
-2.64593e-08
-2.42144e-06
-2.80031e-08
-2.39191e-06
-2.95284e-08
-2.36088e-06
-3.10321e-08
-2.32837e-06
-3.25134e-08
-2.29441e-06
-3.39692e-08
-2.25901e-06
-3.53987e-08
-2.22222e-06
-3.67989e-08
-2.18405e-06
-3.8169e-08
-2.14454e-06
-3.95061e-08
-2.10374e-06
-4.08095e-08
-2.06166e-06
-4.20767e-08
-2.01835e-06
-4.3308e-08
-1.97385e-06
-4.45017e-08
-1.92819e-06
-4.5659e-08
-1.88141e-06
-4.67764e-08
-1.83355e-06
-4.78562e-08
-1.78466e-06
-4.88965e-08
-1.73477e-06
-4.98885e-08
-1.68393e-06
-5.08329e-08
-1.63219e-06
-5.1738e-08
-1.57959e-06
-5.25989e-08
-1.52618e-06
-5.34133e-08
-1.472e-06
-5.41803e-08
-1.41709e-06
-5.49014e-08
-1.36152e-06
-5.5575e-08
-1.30531e-06
-5.6203e-08
-1.24851e-06
-5.67845e-08
-1.19118e-06
-5.73215e-08
-1.13335e-06
-5.78138e-08
-1.07508e-06
-5.82628e-08
-1.01639e-06
-5.86687e-08
-9.57348e-07
-5.90321e-08
-8.97984e-07
-5.9354e-08
-8.38339e-07
-5.96349e-08
-7.78455e-07
-5.9876e-08
-7.18369e-07
-6.00778e-08
-6.58121e-07
-6.02418e-08
-5.97747e-07
-6.03687e-08
-5.37283e-07
-6.04602e-08
-4.76763e-07
-6.05168e-08
-4.1622e-07
-6.05407e-08
-3.55687e-07
-6.05317e-08
-2.95195e-07
-6.04915e-08
-2.34776e-07
-6.04197e-08
-1.74459e-07
-6.03187e-08
-1.14268e-07
-6.01922e-08
-5.4243e-08
-6.00287e-08
5.50685e-09
-5.97528e-08
6.50176e-08
-5.95157e-08
1.24314e-07
-5.93001e-08
1.83285e-07
-5.89776e-08
2.41927e-07
-5.86479e-08
3.00225e-07
-5.8306e-08
3.58144e-07
-5.79256e-08
4.156e-07
-5.74663e-08
4.72445e-07
-5.68535e-08
5.28389e-07
-5.59549e-08
5.82863e-07
-5.44845e-08
6.34675e-07
-5.18243e-08
6.80902e-07
-4.62374e-08
7.14686e-07
-3.37937e-08
8.08738e-09
7.06594e-07
1.11108e-08
-1.64968e-08
2.31455e-08
-2.34017e-08
3.21586e-08
-2.25053e-08
3.81921e-08
-1.93187e-08
4.17642e-08
-1.52669e-08
4.32342e-08
-1.0867e-08
4.28158e-08
-6.41506e-09
4.06531e-08
-2.10284e-09
3.68664e-08
1.9513e-09
3.15503e-08
5.68309e-09
2.47347e-08
9.0681e-09
1.639e-08
1.21165e-08
6.48663e-09
1.48813e-08
-5.00422e-09
1.74534e-08
-1.81179e-08
1.99423e-08
-3.29065e-08
2.2454e-08
-4.94394e-08
2.50774e-08
-6.78085e-08
2.78777e-08
-8.812e-08
3.08933e-08
-1.10512e-07
3.41427e-08
-1.35074e-07
3.76394e-08
-1.61817e-07
4.1387e-08
-1.90796e-07
4.53657e-08
-2.22059e-07
4.95408e-08
-2.5559e-07
5.38633e-08
-2.91316e-07
5.82661e-08
-3.29106e-07
6.26673e-08
-3.68781e-07
6.6977e-08
-4.10116e-07
7.11045e-08
-4.52863e-07
7.49701e-08
-4.96771e-07
7.8515e-08
-5.41607e-07
8.1694e-08
-5.87139e-07
8.44683e-08
-6.33146e-07
8.68166e-08
-6.79419e-07
8.87351e-08
-7.25771e-07
9.0231e-08
-7.72039e-07
9.13216e-08
-8.18089e-07
9.20394e-08
-8.63817e-07
9.2425e-08
-9.09146e-07
9.25219e-08
-9.54022e-07
9.23748e-08
-9.98413e-07
9.20273e-08
-1.0423e-06
9.15212e-08
-1.0857e-06
9.08947e-08
-1.12861e-06
9.01828e-08
-1.17106e-06
8.94181e-08
-1.21307e-06
8.86314e-08
-1.25466e-06
8.78494e-08
-1.29583e-06
8.70884e-08
-1.3366e-06
8.63527e-08
-1.37696e-06
8.56417e-08
-1.41694e-06
8.4954e-08
-1.45655e-06
8.42867e-08
-1.49578e-06
8.36359e-08
-1.53466e-06
8.29972e-08
-1.57317e-06
8.23654e-08
-1.61132e-06
8.17355e-08
-1.64911e-06
8.11016e-08
-1.68653e-06
8.04581e-08
-1.72357e-06
7.97991e-08
-1.76022e-06
7.91189e-08
-1.79646e-06
7.84116e-08
-1.83228e-06
7.76718e-08
-1.86765e-06
7.68941e-08
-1.90256e-06
7.60734e-08
-1.93698e-06
7.52047e-08
-1.97089e-06
7.42836e-08
-2.00425e-06
7.33058e-08
-2.03705e-06
7.22674e-08
-2.06924e-06
7.11647e-08
-2.10081e-06
6.99946e-08
-2.13171e-06
6.87541e-08
-2.16191e-06
6.74408e-08
-2.19139e-06
6.60522e-08
-2.22009e-06
6.45868e-08
-2.248e-06
6.30427e-08
-2.27507e-06
6.14191e-08
-2.30126e-06
5.97148e-08
-2.32655e-06
5.79294e-08
-2.35089e-06
5.60625e-08
-2.37425e-06
5.41142e-08
-2.3966e-06
5.20847e-08
-2.41789e-06
4.99745e-08
-2.4381e-06
4.77841e-08
-2.45719e-06
4.55147e-08
-2.47512e-06
4.31671e-08
-2.49186e-06
4.07426e-08
-2.50739e-06
3.82425e-08
-2.52166e-06
3.56684e-08
-2.53464e-06
3.30215e-08
-2.54632e-06
3.0303e-08
-2.55665e-06
2.75139e-08
-2.56562e-06
2.4655e-08
-2.57319e-06
2.17272e-08
-2.57936e-06
1.8731e-08
-2.5841e-06
1.56678e-08
-2.58742e-06
1.25401e-08
-2.58932e-06
9.35191e-09
-2.58984e-06
6.11178e-09
-2.58905e-06
2.84162e-09
-2.58706e-06
-4.13583e-10
-2.58389e-06
-3.61263e-09
-2.57939e-06
-6.77779e-09
-2.57337e-06
-9.94982e-09
-2.5658e-06
-1.31328e-08
-2.55665e-06
-1.63264e-08
-2.54591e-06
-1.95311e-08
-2.53358e-06
-2.27449e-08
-2.51965e-06
-2.59646e-08
-2.50413e-06
-2.91865e-08
-2.48701e-06
-3.24068e-08
-2.46829e-06
-3.56213e-08
-2.44799e-06
-3.8826e-08
-2.42611e-06
-4.20169e-08
-2.40265e-06
-4.519e-08
-2.37764e-06
-4.83411e-08
-2.35107e-06
-5.14664e-08
-2.32297e-06
-5.45618e-08
-2.29335e-06
-5.76234e-08
-2.26223e-06
-6.06474e-08
-2.22964e-06
-6.36297e-08
-2.19559e-06
-6.65667e-08
-2.1601e-06
-6.94543e-08
-2.12321e-06
-7.22891e-08
-2.08495e-06
-7.5067e-08
-2.04533e-06
-7.77846e-08
-2.0044e-06
-8.04379e-08
-1.96219e-06
-8.30239e-08
-1.91873e-06
-8.55391e-08
-1.87405e-06
-8.79815e-08
-1.8282e-06
-9.03495e-08
-1.78122e-06
-9.26431e-08
-1.73313e-06
-9.48605e-08
-1.68399e-06
-9.70016e-08
-1.63383e-06
-9.90618e-08
-1.58268e-06
-1.01029e-07
-1.53061e-06
-1.02905e-07
-1.47765e-06
-1.047e-07
-1.42384e-06
-1.06406e-07
-1.36923e-06
-1.08021e-07
-1.31387e-06
-1.09543e-07
-1.2578e-06
-1.10972e-07
-1.20106e-06
-1.12309e-07
-1.14371e-06
-1.13554e-07
-1.08578e-06
-1.14707e-07
-1.02732e-06
-1.15772e-07
-9.68383e-07
-1.16748e-07
-9.09002e-07
-1.17636e-07
-8.49224e-07
-1.18439e-07
-7.89092e-07
-1.19158e-07
-7.28648e-07
-1.19793e-07
-6.67932e-07
-1.20346e-07
-6.06984e-07
-1.2082e-07
-5.45843e-07
-1.21215e-07
-4.84546e-07
-1.21535e-07
-4.23132e-07
-1.21781e-07
-3.61635e-07
-1.21955e-07
-3.00091e-07
-1.2206e-07
-2.38531e-07
-1.221e-07
-1.76988e-07
-1.22075e-07
-1.15491e-07
-1.21988e-07
-5.40704e-08
-1.21842e-07
7.24824e-09
-1.21638e-07
6.84429e-08
-1.21389e-07
1.29493e-07
-1.21081e-07
1.90414e-07
-1.20676e-07
2.51097e-07
-1.20202e-07
3.11462e-07
-1.19668e-07
3.71549e-07
-1.19069e-07
4.3134e-07
-1.18444e-07
4.90806e-07
-1.17776e-07
5.49894e-07
-1.17019e-07
6.08513e-07
-1.16092e-07
6.66507e-07
-1.14854e-07
7.23589e-07
-1.13044e-07
7.79257e-07
-1.1016e-07
8.32504e-07
-1.0508e-07
8.81774e-07
-9.55149e-08
9.23468e-07
-7.5495e-08
-2.72895e-08
9.58841e-07
9.37383e-09
-2.58716e-08
1.58231e-08
-2.98524e-08
1.85855e-08
-2.52683e-08
1.86029e-08
-1.93369e-08
1.65428e-08
-1.32072e-08
1.27998e-08
-7.12459e-09
7.58064e-09
-1.19633e-09
9.73056e-10
4.50413e-09
-7.00535e-09
9.92936e-09
-1.63834e-08
1.50605e-08
-2.72222e-08
1.99066e-08
-3.96089e-08
2.45026e-08
-5.36382e-08
2.89103e-08
-6.93999e-08
3.32146e-08
-8.6969e-08
3.75111e-08
-1.06408e-07
4.18923e-08
-1.27766e-07
4.64351e-08
-1.51082e-07
5.11934e-08
-1.76383e-07
5.61944e-08
-2.0368e-07
6.14391e-08
-2.32946e-07
6.69051e-08
-2.64111e-07
7.25513e-08
-2.97065e-07
7.83193e-08
-3.3166e-07
8.41346e-08
-3.67707e-07
8.991e-08
-4.04992e-07
9.55504e-08
-4.43284e-07
1.00959e-07
-4.82354e-07
1.06046e-07
-5.21983e-07
1.10734e-07
-5.61977e-07
1.14963e-07
-6.02154e-07
1.18692e-07
-6.42358e-07
1.21897e-07
-6.82459e-07
1.24569e-07
-7.22354e-07
1.26711e-07
-7.61962e-07
1.28342e-07
-8.01228e-07
1.29497e-07
-8.40131e-07
1.30224e-07
-8.78665e-07
1.30573e-07
-9.16837e-07
1.30596e-07
-9.54658e-07
1.30343e-07
-9.92149e-07
1.29865e-07
-1.02933e-06
1.29208e-07
-1.06622e-06
1.28416e-07
-1.10286e-06
1.27526e-07
-1.13925e-06
1.26573e-07
-1.17542e-06
1.25585e-07
-1.21137e-06
1.24587e-07
-1.24712e-06
1.23596e-07
-1.28265e-06
1.22624e-07
-1.31798e-06
1.21675e-07
-1.35309e-06
1.20751e-07
-1.38798e-06
1.19849e-07
-1.42266e-06
1.18966e-07
-1.45712e-06
1.18097e-07
-1.49136e-06
1.17235e-07
-1.52537e-06
1.16374e-07
-1.55914e-06
1.15506e-07
-1.59267e-06
1.14625e-07
-1.62593e-06
1.13722e-07
-1.65892e-06
1.12789e-07
-1.69162e-06
1.1182e-07
-1.72402e-06
1.10805e-07
-1.75608e-06
1.09739e-07
-1.7878e-06
1.08613e-07
-1.81915e-06
1.07421e-07
-1.8501e-06
1.06157e-07
-1.88063e-06
1.04814e-07
-1.91072e-06
1.03386e-07
-1.94032e-06
1.0187e-07
-1.96941e-06
1.00259e-07
-1.99797e-06
9.8549e-08
-2.02595e-06
9.67366e-08
-2.05333e-06
9.48181e-08
-2.08007e-06
9.27904e-08
-2.10613e-06
9.06512e-08
-2.13149e-06
8.83982e-08
-2.1561e-06
8.60299e-08
-2.17993e-06
8.3545e-08
-2.20294e-06
8.09428e-08
-2.22511e-06
7.8223e-08
-2.24638e-06
7.53854e-08
-2.26672e-06
7.24306e-08
-2.28611e-06
6.93592e-08
-2.3045e-06
6.61723e-08
-2.32185e-06
6.28715e-08
-2.33815e-06
5.94582e-08
-2.35334e-06
5.59345e-08
-2.3674e-06
5.23027e-08
-2.38029e-06
4.85654e-08
-2.392e-06
4.47252e-08
-2.40248e-06
4.07848e-08
-2.41171e-06
3.67474e-08
-2.41968e-06
3.26163e-08
-2.42635e-06
2.83953e-08
-2.43171e-06
2.40892e-08
-2.43575e-06
1.97042e-08
-2.43846e-06
1.52483e-08
-2.43984e-06
1.0732e-08
-2.4399e-06
6.1689e-09
-2.43863e-06
1.57892e-09
-2.43603e-06
-3.016e-09
-2.43204e-06
-7.61117e-09
-2.42658e-06
-1.223e-08
-2.41965e-06
-1.68877e-08
-2.4112e-06
-2.15787e-08
-2.40123e-06
-2.62962e-08
-2.38973e-06
-3.10351e-08
-2.37669e-06
-3.57894e-08
-2.3621e-06
-4.05537e-08
-2.34596e-06
-4.53218e-08
-2.32828e-06
-5.00878e-08
-2.30906e-06
-5.48456e-08
-2.2883e-06
-5.95894e-08
-2.266e-06
-6.43128e-08
-2.24218e-06
-6.90103e-08
-2.21685e-06
-7.36754e-08
-2.19002e-06
-7.83027e-08
-2.16169e-06
-8.2886e-08
-2.1319e-06
-8.74196e-08
-2.10065e-06
-9.18977e-08
-2.06797e-06
-9.63147e-08
-2.03387e-06
-1.00665e-07
-1.99838e-06
-1.04942e-07
-1.96153e-06
-1.09142e-07
-1.92334e-06
-1.13258e-07
-1.88384e-06
-1.17285e-07
-1.84306e-06
-1.21218e-07
-1.80104e-06
-1.25051e-07
-1.7578e-06
-1.2878e-07
-1.71338e-06
-1.324e-07
-1.66781e-06
-1.35911e-07
-1.62115e-06
-1.39309e-07
-1.57341e-06
-1.42596e-07
-1.52464e-06
-1.45768e-07
-1.47489e-06
-1.48819e-07
-1.42418e-06
-1.51737e-07
-1.37256e-06
-1.54522e-07
-1.32008e-06
-1.57181e-07
-1.26678e-06
-1.59711e-07
-1.21269e-06
-1.62105e-07
-1.15787e-06
-1.64361e-07
-1.10237e-06
-1.6648e-07
-1.04621e-06
-1.68462e-07
-9.89453e-07
-1.70308e-07
-9.32137e-07
-1.7202e-07
-8.74307e-07
-1.73597e-07
-8.16006e-07
-1.75044e-07
-7.57277e-07
-1.7636e-07
-6.98163e-07
-1.77549e-07
-6.38706e-07
-1.78611e-07
-5.78946e-07
-1.7955e-07
-5.18923e-07
-1.80366e-07
-4.58677e-07
-1.81064e-07
-3.98246e-07
-1.81645e-07
-3.37667e-07
-1.82112e-07
-2.76977e-07
-1.82469e-07
-2.1621e-07
-1.8272e-07
-1.55402e-07
-1.82868e-07
-9.45826e-08
-1.82918e-07
-3.37827e-08
-1.82874e-07
2.69698e-08
-1.8274e-07
8.76458e-08
-1.82517e-07
1.48218e-07
-1.82211e-07
2.08659e-07
-1.81829e-07
2.68945e-07
-1.81367e-07
3.29078e-07
-1.80809e-07
3.8903e-07
-1.80153e-07
4.48761e-07
-1.794e-07
5.08259e-07
-1.78567e-07
5.67488e-07
-1.77673e-07
6.26408e-07
-1.76696e-07
6.84959e-07
-1.75571e-07
7.43049e-07
-1.74183e-07
8.00529e-07
-1.72335e-07
8.5715e-07
-1.69666e-07
9.12498e-07
-1.65509e-07
9.6593e-07
-1.58513e-07
1.01657e-06
-1.46154e-07
1.06382e-06
-1.22745e-07
-7.57052e-08
1.11223e-06
4.25243e-09
-3.01249e-08
3.9584e-09
-2.95595e-08
1.00314e-09
-2.23137e-08
-3.75852e-09
-1.45758e-08
-9.97276e-09
-6.99329e-09
-1.74661e-08
3.6823e-10
-2.61662e-08
7.50349e-09
-3.60698e-08
1.44072e-08
-4.7219e-08
2.10782e-08
-5.96854e-08
2.75265e-08
-7.35567e-08
3.37777e-08
-8.89286e-08
3.9874e-08
-1.05892e-07
4.58735e-08
-1.24523e-07
5.18451e-08
-1.44873e-07
5.78608e-08
-1.66966e-07
6.39848e-08
-1.90795e-07
7.02645e-08
-2.16327e-07
7.67241e-08
-2.43494e-07
8.33611e-08
-2.72202e-07
9.01465e-08
-3.02324e-07
9.70268e-08
-3.33703e-07
1.0393e-07
-3.66157e-07
1.10773e-07
-3.99486e-07
1.17464e-07
-4.33485e-07
1.23908e-07
-4.67951e-07
1.30016e-07
-5.02699e-07
1.35707e-07
-5.37566e-07
1.40913e-07
-5.72419e-07
1.45585e-07
-6.07148e-07
1.49692e-07
-6.41673e-07
1.53216e-07
-6.75933e-07
1.56157e-07
-7.09894e-07
1.58529e-07
-7.43542e-07
1.60359e-07
-7.76888e-07
1.61688e-07
-8.09955e-07
1.62563e-07
-8.4277e-07
1.63038e-07
-8.75362e-07
1.63166e-07
-9.07764e-07
1.62998e-07
-9.40007e-07
1.62585e-07
-9.72117e-07
1.61975e-07
-1.00412e-06
1.61209e-07
-1.03603e-06
1.60328e-07
-1.06787e-06
1.59364e-07
-1.09964e-06
1.58346e-07
-1.13136e-06
1.57298e-07
-1.16301e-06
1.56239e-07
-1.1946e-06
1.55182e-07
-1.22611e-06
1.54137e-07
-1.25754e-06
1.53107e-07
-1.28889e-06
1.52094e-07
-1.32013e-06
1.51094e-07
-1.35127e-06
1.50104e-07
-1.38229e-06
1.49117e-07
-1.41318e-06
1.48127e-07
-1.44394e-06
1.47126e-07
-1.47454e-06
1.46106e-07
-1.50497e-06
1.45057e-07
-1.53522e-06
1.43971e-07
-1.56527e-06
1.42837e-07
-1.5951e-06
1.41648e-07
-1.62469e-06
1.40395e-07
-1.65402e-06
1.39067e-07
-1.68306e-06
1.37657e-07
-1.7118e-06
1.36157e-07
-1.7402e-06
1.34558e-07
-1.76824e-06
1.32854e-07
-1.79589e-06
1.31037e-07
-1.82312e-06
1.29101e-07
-1.8499e-06
1.2704e-07
-1.8762e-06
1.24848e-07
-1.90199e-06
1.22521e-07
-1.92722e-06
1.20055e-07
-1.95188e-06
1.17445e-07
-1.97592e-06
1.14688e-07
-1.9993e-06
1.11783e-07
-2.022e-06
1.08726e-07
-2.04397e-06
1.05517e-07
-2.06518e-06
1.02154e-07
-2.0856e-06
9.86376e-08
-2.10518e-06
9.4967e-08
-2.12389e-06
9.11432e-08
-2.1417e-06
8.71671e-08
-2.15857e-06
8.30404e-08
-2.17446e-06
7.87648e-08
-2.18935e-06
7.4343e-08
-2.20319e-06
6.97776e-08
-2.21596e-06
6.5072e-08
-2.22762e-06
6.02297e-08
-2.23815e-06
5.52551e-08
-2.24752e-06
5.01523e-08
-2.2557e-06
4.49263e-08
-2.26267e-06
3.95825e-08
-2.2684e-06
3.41274e-08
-2.27288e-06
2.8568e-08
-2.27609e-06
2.2913e-08
-2.27802e-06
1.71725e-08
-2.27865e-06
1.1358e-08
-2.27796e-06
5.4821e-09
-2.27594e-06
-4.41332e-10
-2.27256e-06
-6.40205e-09
-2.26777e-06
-1.24011e-08
-2.26155e-06
-1.845e-08
-2.25388e-06
-2.45529e-08
-2.24476e-06
-3.0703e-08
-2.23416e-06
-3.68913e-08
-2.22209e-06
-4.31098e-08
-2.20853e-06
-4.93501e-08
-2.19348e-06
-5.56041e-08
-2.17694e-06
-6.18638e-08