/*--------------------------------*- C++ -*----------------------------------*\
| =========                 |                                                 |
| \\      /  F ield         | OpenFOAM: The Open Source CFD Toolbox           |
|  \\    /   O peration     | Version:  4.1                                   |
|   \\  /    A nd           | Web:      www.OpenFOAM.org                      |
|    \\/     M anipulation  |                                                 |
\*---------------------------------------------------------------------------*/
FoamFile
{
    version     2.0;
    format      ascii;
    class       volVectorField;
    location    "298";
    object      U;
}
// * * * * * * * * * * * * * * * * * * * * * * * * * * * * * * * * * * * * * //

dimensions      [0 1 -1 0 0 0 0];

internalField   nonuniform List<vector> 
12225
(
(9.83552 -0.96941 0)
(9.57661 -0.895709 0)
(9.29089 -0.596668 0)
(8.97667 -0.369335 0)
(8.67812 -0.224379 0)
(8.41188 -0.136336 0)
(8.17884 -0.0831786 0)
(7.97625 -0.0507471 0)
(7.8009 -0.0308442 0)
(7.64952 -0.0184412 0)
(7.51869 -0.0107257 0)
(7.40531 -0.00594922 0)
(7.30694 -0.00307237 0)
(7.22169 -0.00145584 0)
(7.14767 -0.0006494 0)
(7.08616 -0.00116492 0)
(7.02715 0.00219378 0)
(7.00022 -0.0203924 0)
(10.0744 0.265642 0)
(10.1924 0.434366 0)
(10.2331 0.398403 0)
(10.232 0.321259 0)
(10.2109 0.253707 0)
(10.176 0.201356 0)
(10.127 0.162047 0)
(10.0664 0.132984 0)
(9.99819 0.111432 0)
(9.92591 0.0951366 0)
(9.85187 0.0825535 0)
(9.77781 0.0726128 0)
(9.70488 0.0645498 0)
(9.63415 0.05786 0)
(9.56609 0.0518767 0)
(9.50157 0.0470497 0)
(9.44128 0.0402223 0)
(9.3876 0.0399817 0)
(10.0026 0.0614287 0)
(10.0298 0.047487 0)
(10.0597 0.00574332 0)
(10.0887 -0.00527929 0)
(10.1149 0.00350463 0)
(10.1381 0.0157565 0)
(10.1557 0.026287 0)
(10.1671 0.0345693 0)
(10.1732 0.0407535 0)
(10.1749 0.0450762 0)
(10.1732 0.0478704 0)
(10.1685 0.049472 0)
(10.1616 0.0501332 0)
(10.1529 0.0500144 0)
(10.1429 0.0491531 0)
(10.1323 0.0475278 0)
(10.1217 0.044857 0)
(10.11 0.0395789 0)
(9.99667 0.00936753 0)
(10.0076 0.025534 0)
(10.033 0.0385521 0)
(10.0549 0.0550837 0)
(10.0719 0.0676219 0)
(10.0873 0.0732803 0)
(10.1012 0.0743407 0)
(10.1132 0.0733238 0)
(10.1235 0.0714311 0)
(10.1326 0.0691423 0)
(10.1406 0.0666763 0)
(10.1477 0.0641613 0)
(10.154 0.0616145 0)
(10.1595 0.0590002 0)
(10.1646 0.0561661 0)
(10.1692 0.0529406 0)
(10.1734 0.0487976 0)
(10.1766 0.0426056 0)
(9.99899 0.00656295 0)
(10.0076 0.0347096 0)
(10.0275 0.0494616 0)
(10.0434 0.0560765 0)
(10.0555 0.059218 0)
(10.0672 0.0600286 0)
(10.0787 0.0595288 0)
(10.0891 0.0586195 0)
(10.0984 0.0576292 0)
(10.107 0.0565629 0)
(10.1151 0.0553878 0)
(10.1227 0.0540835 0)
(10.1298 0.0526145 0)
(10.1366 0.0509116 0)
(10.1432 0.0488437 0)
(10.1495 0.0462379 0)
(10.1553 0.0427665 0)
(10.1604 0.0381679 0)
(10.0002 0.00923453 0)
(10.0077 0.0334411 0)
(10.0232 0.044368 0)
(10.0364 0.0485805 0)
(10.0473 0.0518784 0)
(10.0579 0.0542806 0)
(10.0683 0.0553853 0)
(10.0778 0.0555952 0)
(10.0863 0.0552898 0)
(10.0943 0.0546085 0)
(10.1018 0.0536081 0)
(10.1089 0.0523326 0)
(10.1157 0.0507936 0)
(10.1222 0.0489595 0)
(10.1285 0.0467439 0)
(10.1345 0.0440277 0)
(10.1401 0.0406604 0)
(10.145 0.0365579 0)
(10.0004 0.00903029 0)
(10.0067 0.0280767 0)
(10.0193 0.038406 0)
(10.0314 0.04367 0)
(10.0417 0.0477683 0)
(10.0516 0.0506179 0)
(10.0612 0.0519094 0)
(10.0701 0.0521337 0)
(10.0781 0.0517713 0)
(10.0857 0.0510201 0)
(10.0928 0.0499541 0)
(10.0996 0.0486157 0)
(10.1061 0.0470195 0)
(10.1122 0.0451386 0)
(10.1182 0.042913 0)
(10.1238 0.0402641 0)
(10.1289 0.0371259 0)
(10.1334 0.0334901 0)
(10.0004 0.00802726 0)
(10.0058 0.0241676 0)
(10.0166 0.0345208 0)
(10.0277 0.0402787 0)
(10.0375 0.0443019 0)
(10.0469 0.0469938 0)
(10.056 0.0482811 0)
(10.0645 0.0485827 0)
(10.0723 0.0483109 0)
(10.0797 0.0476425 0)
(10.0866 0.0466451 0)
(10.0932 0.0453584 0)
(10.0994 0.0438007 0)
(10.1054 0.0419567 0)
(10.111 0.0397908 0)
(10.1163 0.0372591 0)
(10.1211 0.0343429 0)
(10.1254 0.0310763 0)
(10.0004 0.00717507 0)
(10.0051 0.0213905 0)
(10.0144 0.0312977 0)
(10.0246 0.0370687 0)
(10.034 0.0409565 0)
(10.0429 0.0435759 0)
(10.0516 0.0449322 0)
(10.0598 0.0453451 0)
(10.0675 0.0451664 0)
(10.0746 0.0445676 0)
(10.0814 0.043622 0)
(10.0878 0.0423735 0)
(10.0939 0.0408471 0)
(10.0997 0.03904 0)
(10.1051 0.0369358 0)
(10.1102 0.0345165 0)
(10.1148 0.0317903 0)
(10.1189 0.0288116 0)
(10.0004 0.00636112 0)
(10.0045 0.0187479 0)
(10.0124 0.0278671 0)
(10.0216 0.0334829 0)
(10.0303 0.037246 0)
(10.0388 0.0397997 0)
(10.047 0.0412056 0)
(10.055 0.0417079 0)
(10.0624 0.0416055 0)
(10.0694 0.0410683 0)
(10.076 0.0401749 0)
(10.0822 0.0389732 0)
(10.0882 0.0374939 0)
(10.0938 0.0357467 0)
(10.099 0.0337324 0)
(10.1039 0.0314542 0)
(10.1082 0.0289371 0)
(10.1122 0.0262453 0)
(10.0004 0.00553557 0)
(10.0038 0.0161408 0)
(10.0106 0.0243106 0)
(10.0187 0.0296515 0)
(10.0268 0.0332442 0)
(10.0347 0.0356763 0)
(10.0425 0.037072 0)
(10.05 0.0376235 0)
(10.0571 0.0375773 0)
(10.0639 0.0370937 0)
(10.0703 0.0362549 0)
(10.0764 0.0351111 0)
(10.0821 0.0336978 0)
(10.0875 0.0320357 0)
(10.0925 0.0301396 0)
(10.0972 0.0280285 0)
(10.1014 0.0257364 0)
(10.1052 0.023329 0)
(10.0003 0.00469336 0)
(10.0033 0.0135953 0)
(10.0089 0.0207108 0)
(10.016 0.0256199 0)
(10.0234 0.0289547 0)
(10.0307 0.0312006 0)
(10.038 0.0325253 0)
(10.0451 0.0330844 0)
(10.0519 0.0330717 0)
(10.0583 0.0326312 0)
(10.0645 0.0318455 0)
(10.0703 0.030767 0)
(10.0758 0.0294351 0)
(10.081 0.0278791 0)
(10.0858 0.0261242 0)
(10.0902 0.0241991 0)
(10.0943 0.0221406 0)
(10.0979 0.0200105 0)
(10.0003 0.00385265 0)
(10.0027 0.0111288 0)
(10.0075 0.0171083 0)
(10.0136 0.02142 0)
(10.0203 0.0243929 0)
(10.027 0.0263866 0)
(10.0337 0.0275771 0)
(10.0403 0.028094 0)
(10.0467 0.0280844 0)
(10.0528 0.0276709 0)
(10.0587 0.0269331 0)
(10.0642 0.0259246 0)
(10.0695 0.0246866 0)
(10.0744 0.0232537 0)
(10.079 0.0216572 0)
(10.0832 0.0199297 0)
(10.0871 0.0181067 0)
(10.0906 0.0162433 0)
(10.0002 0.00302627 0)
(10.0023 0.00873673 0)
(10.0063 0.0135223 0)
(10.0116 0.0170901 0)
(10.0175 0.0195873 0)
(10.0236 0.0212518 0)
(10.0297 0.0222375 0)
(10.0359 0.0226524 0)
(10.0419 0.0226065 0)
(10.0476 0.0221983 0)
(10.0532 0.0214998 0)
(10.0584 0.0205623 0)
(10.0634 0.019427 0)
(10.0681 0.0181293 0)
(10.0724 0.0167021 0)
(10.0765 0.0151777 0)
(10.0802 0.0135874 0)
(10.0836 0.0119784 0)
(10.0002 0.00221783 0)
(10.0019 0.00640379 0)
(10.0053 0.0099548 0)
(10.0099 0.0126565 0)
(10.0151 0.0145601 0)
(10.0206 0.0158059 0)
(10.0262 0.0165096 0)
(10.0319 0.0167564 0)
(10.0375 0.0166265 0)
(10.0429 0.0161945 0)
(10.0481 0.0155199 0)
(10.0531 0.0146482 0)
(10.0578 0.013617 0)
(10.0622 0.0124591 0)
(10.0664 0.0112046 0)
(10.0702 0.00988225 0)
(10.0738 0.0085177 0)
(10.0771 0.00714977 0)
(10.0002 0.00142196 0)
(10.0016 0.00410179 0)
(10.0045 0.00637971 0)
(10.0085 0.00811107 0)
(10.0132 0.00930496 0)
(10.0182 0.0100344 0)
(10.0233 0.0103735 0)
(10.0286 0.0103817 0)
(10.0338 0.0101136 0)
(10.0388 0.00962056 0)
(10.0438 0.00894662 0)
(10.0484 0.00812759 0)
(10.0529 0.00719361 0)
(10.0571 0.00617143 0)
(10.0611 0.00508535 0)
(10.0648 0.00395821 0)
(10.0682 0.002809 0)
(10.0714 0.00166834 0)
(10.0002 0.000622708 0)
(10.0014 0.00178163 0)
(10.004 0.00273557 0)
(10.0075 0.00340048 0)
(10.0118 0.00377362 0)
(10.0163 0.0038859 0)
(10.0212 0.0037739 0)
(10.0261 0.00346982 0)
(10.0309 0.00300415 0)
(10.0357 0.00240611 0)
(10.0404 0.00170184 0)
(10.0449 0.000913771 0)
(10.0491 6.14928e-05 0)
(10.0532 -0.000837286 0)
(10.057 -0.00176641 0)
(10.0605 -0.00271077 0)
(10.0639 -0.00365845 0)
(10.067 -0.00458716 0)
(10.0001 -0.000159627 0)
(10.0013 -0.000494198 0)
(10.0037 -0.000861765 0)
(10.0071 -0.00129262 0)
(10.0111 -0.00178584 0)
(10.0154 -0.00233836 0)
(10.02 -0.00294674 0)
(10.0247 -0.00360515 0)
(10.0294 -0.00430535 0)
(10.0341 -0.00503914 0)
(10.0386 -0.00579915 0)
(10.0429 -0.0065783 0)
(10.0471 -0.00736945 0)
(10.051 -0.00816546 0)
(10.0547 -0.00895935 0)
(10.0582 -0.00974418 0)
(10.0615 -0.010515 0)
(10.0646 -0.0112571 0)
(10.0001 -0.000876634 0)
(10.0013 -0.00258666 0)
(10.0037 -0.004184 0)
(10.0071 -0.00564245 0)
(10.0111 -0.00694794 0)
(10.0154 -0.00812386 0)
(10.02 -0.00920011 0)
(10.0247 -0.0101949 0)
(10.0294 -0.0111198 0)
(10.034 -0.0119862 0)
(10.0385 -0.012805 0)
(10.0428 -0.0135837 0)
(10.0469 -0.0143275 0)
(10.0508 -0.0150393 0)
(10.0545 -0.015721 0)
(10.058 -0.0163733 0)
(10.0613 -0.0169972 0)
(10.0644 -0.0175844 0)
(10.0002 -0.00152767 0)
(10.0014 -0.00450193 0)
(10.0039 -0.00723864 0)
(10.0074 -0.00963073 0)
(10.0116 -0.0116528 0)
(10.0162 -0.0133728 0)
(10.0209 -0.0148555 0)
(10.0257 -0.0161361 0)
(10.0304 -0.0172446 0)
(10.0351 -0.0182145 0)
(10.0397 -0.0190748 0)
(10.044 -0.0198463 0)
(10.0482 -0.0205442 0)
(10.0521 -0.0211803 0)
(10.0558 -0.021764 0)
(10.0594 -0.022302 0)
(10.0627 -0.0228001 0)
(10.0658 -0.0232548 0)
(10.0002 -0.00213142 0)
(10.0015 -0.00632875 0)
(10.0042 -0.0101841 0)
(10.0081 -0.0134315 0)
(10.0126 -0.0160641 0)
(10.0174 -0.0182486 0)
(10.0223 -0.0200846 0)
(10.0273 -0.0216059 0)
(10.0323 -0.0228568 0)
(10.0371 -0.0238958 0)
(10.0418 -0.0247716 0)
(10.0462 -0.0255177 0)
(10.0504 -0.0261592 0)
(10.0544 -0.0267167 0)
(10.0582 -0.0272063 0)
(10.0618 -0.0276399 0)
(10.0651 -0.028027 0)
(10.0683 -0.0283683 0)
(10.0001 -0.00267399 0)
(10.0015 -0.00810265 0)
(10.0046 -0.0131298 0)
(10.009 -0.017175 0)
(10.0139 -0.0203062 0)
(10.0191 -0.0228598 0)
(10.0243 -0.0249729 0)
(10.0295 -0.0266758 0)
(10.0347 -0.0280308 0)
(10.0397 -0.029117 0)
(10.0445 -0.0299935 0)
(10.0491 -0.0307019 0)
(10.0534 -0.0312766 0)
(10.0575 -0.0317469 0)
(10.0614 -0.0321357 0)
(10.065 -0.0324595 0)
(10.0684 -0.0327313 0)
(10.0715 -0.032954 0)
(10.0001 -0.00312697 0)
(10.0014 -0.0098465 0)
(10.0049 -0.0160608 0)
(10.01 -0.0208266 0)
(10.0155 -0.0244471 0)
(10.021 -0.0273671 0)
(10.0265 -0.029681 0)
(10.0321 -0.0314531 0)
(10.0375 -0.0328209 0)
(10.0427 -0.0338983 0)
(10.0477 -0.0347467 0)
(10.0524 -0.0354081 0)
(10.0568 -0.0359217 0)
(10.061 -0.0363219 0)
(10.0649 -0.0366348 0)
(10.0686 -0.0368792 0)
(10.0721 -0.0370698 0)
(10.0753 -0.0372132 0)
(9.99999 -0.00343207 0)
(10.0012 -0.0119155 0)
(10.0052 -0.0191018 0)
(10.0111 -0.0240637 0)
(10.0171 -0.0280771 0)
(10.023 -0.0315457 0)
(10.0289 -0.0342132 0)
(10.0348 -0.0361035 0)
(10.0405 -0.0374602 0)
(10.0459 -0.0384629 0)
(10.0511 -0.0391954 0)
(10.0559 -0.0397155 0)
(10.0605 -0.0400767 0)
(10.0649 -0.0403245 0)
(10.0689 -0.0404909 0)
(10.0727 -0.0405981 0)
(10.0762 -0.0406605 0)
(10.0796 -0.0406788 0)
(9.9997 -0.00293687 0)
(10.0005 -0.0149106 0)
(10.0055 -0.0236036 0)
(10.0121 -0.0278722 0)
(10.0183 -0.0313049 0)
(10.0246 -0.0347926 0)
(10.0311 -0.0377399 0)
(10.0377 -0.039963 0)
(10.0439 -0.0416301 0)
(10.0497 -0.0428803 0)
(10.0552 -0.0437825 0)
(10.0604 -0.0444011 0)
(10.0653 -0.044803 0)
(10.0699 -0.045046 0)
(10.0741 -0.0451737 0)
(10.0781 -0.0452172 0)
(10.0819 -0.0452008 0)
(10.0854 -0.0451351 0)
(9.99826 0.000530008 0)
(9.99727 -0.0154297 0)
(10.0047 -0.0287296 0)
(10.0134 -0.034848 0)
(10.0202 -0.0378999 0)
(10.0269 -0.0398848 0)
(10.0343 -0.0412362 0)
(10.0416 -0.0422518 0)
(10.0486 -0.043109 0)
(10.0552 -0.0438331 0)
(10.0615 -0.0444047 0)
(10.0673 -0.0448405 0)
(10.0728 -0.0451663 0)
(10.0779 -0.0454121 0)
(10.0826 -0.045597 0)
(10.087 -0.0457377 0)
(10.0911 -0.0458405 0)
(10.0949 -0.0458792 0)
(9.99433 0.00326684 0)
(9.98945 -0.00600953 0)
(10.0009 -0.0207585 0)
(10.0149 -0.0364389 0)
(10.0259 -0.0489624 0)
(10.0356 -0.0564662 0)
(10.0451 -0.0601555 0)
(10.0541 -0.0617645 0)
(10.0624 -0.0622962 0)
(10.0702 -0.062142 0)
(10.0775 -0.0615444 0)
(10.0844 -0.0606736 0)
(10.0907 -0.0596738 0)
(10.0965 -0.0586256 0)
(10.1018 -0.0575987 0)
(10.1066 -0.0566235 0)
(10.1111 -0.0557264 0)
(10.1152 -0.054861 0)
(9.99403 -0.0268135 0)
(9.99269 -0.0111994 0)
(10.0051 0.019967 0)
(10.0223 0.029097 0)
(10.0409 0.021539 0)
(10.0596 0.00979627 0)
(10.0771 -0.00117723 0)
(10.0925 -0.0107972 0)
(10.1057 -0.0190241 0)
(10.1171 -0.025851 0)
(10.1269 -0.0313403 0)
(10.135 -0.0356998 0)
(10.1417 -0.0391191 0)
(10.1471 -0.0417884 0)
(10.1512 -0.0438638 0)
(10.1542 -0.0454958 0)
(10.1563 -0.0468013 0)
(10.1575 -0.0478853 0)
(10.0314 -0.193982 0)
(10.0939 -0.342972 0)
(10.127 -0.333185 0)
(10.1423 -0.283817 0)
(10.1578 -0.237675 0)
(10.1738 -0.199999 0)
(10.1851 -0.169813 0)
(10.189 -0.146045 0)
(10.1858 -0.127471 0)
(10.1767 -0.112788 0)
(10.1625 -0.101022 0)
(10.1443 -0.091468 0)
(10.1229 -0.0836425 0)
(10.0991 -0.0771724 0)
(10.0735 -0.0717827 0)
(10.0468 -0.0673093 0)
(10.0193 -0.0636203 0)
(9.99181 -0.0609762 0)
(9.93961 0.728869 0)
(9.87047 0.714311 0)
(9.75662 0.510525 0)
(9.59843 0.343385 0)
(9.42175 0.226505 0)
(9.24555 0.147564 0)
(9.07611 0.0945635 0)
(8.91598 0.0587102 0)
(8.76688 0.0342731 0)
(8.62965 0.0176002 0)
(8.50409 0.00629272 0)
(8.38959 -0.00129615 0)
(8.28531 -0.00628244 0)
(8.19047 -0.00945608 0)
(8.10411 -0.0114263 0)
(8.02542 -0.0125811 0)
(7.95322 -0.0131774 0)
(7.88718 -0.0138302 0)
(0.00204177 -0.0035646 1.42068e-19)
(0.00970314 -0.0105685 4.44247e-19)
(0.0205521 -0.0153792 -5.43353e-19)
(0.0326769 -0.0171399 2.62638e-19)
(0.0439593 -0.0163754 1.73277e-19)
(0.0534187 -0.0140713 1.3784e-19)
(0.0606708 -0.0110554 -2.37758e-19)
(0.0656216 -0.00785402 2.60884e-19)
(0.0683557 -0.0047599 -2.57695e-19)
(0.0690478 -0.00194624 2.52727e-19)
(0.0678029 0.000430273 2.78057e-19)
(0.0650783 0.00227584 -2.76738e-19)
(0.0611761 0.00363215 -3.13696e-19)
(0.0563158 0.00463151 -4.97128e-20)
(0.0506463 0.00543181 -6.53944e-20)
(0.044232 0.0061756 4.02556e-19)
(0.0370625 0.00697477 3.70386e-19)
(0.0290777 0.00790756 1.73049e-19)
(0.0201898 0.00901448 -2.34429e-20)
(0.0102791 0.0102611 -1.08699e-19)
(-0.000780942 0.0114786 -1.22526e-19)
(-0.0131288 0.0125327 3.82082e-19)
(-0.0269448 0.0135345 -3.21028e-19)
(-0.0423927 0.0146296 -5.55539e-20)
(-0.0596218 0.0158864 4.74874e-20)
(-0.0787798 0.0173324 -1.85164e-19)
(-0.099997 0.0189773 -7.33871e-20)
(-0.123375 0.0208136 8.36726e-20)
(-0.148979 0.0228112 -5.94175e-21)
(-0.176836 0.0249111 -1.39892e-19)
(-0.206912 0.0270274 -1.0348e-20)
(-0.239104 0.029069 -5.00053e-20)
(-0.273282 0.0309859 -5.39319e-21)
(-0.309278 0.0327375 -1.00468e-21)
(-0.346904 0.0342901 9.2791e-20)
(-0.385954 0.0356193 1.17408e-19)
(-0.426216 0.0367132 -2.60099e-21)
(-0.467473 0.0375652 -3.36005e-20)
(-0.509516 0.0381805 9.33589e-20)
(-0.55215 0.0385714 2.14795e-20)
(-0.595194 0.0387558 1.52055e-20)
(-0.638489 0.0387547 5.36429e-20)
(-0.681891 0.0385917 -1.48671e-19)
(-0.72528 0.0382915 1.05373e-19)
(-0.768562 0.0378822 -1.24581e-19)
(-0.81167 0.0373975 4.38562e-20)
(-0.854544 0.0368789 -7.50819e-20)
(-0.897125 0.0363667 7.93335e-20)
(-0.939428 0.0358844 4.70166e-20)
(-0.981511 0.035426 7.71323e-20)
(-1.02336 0.0349834 -5.91259e-20)
(-1.065 0.0345568 3.08274e-20)
(-1.10643 0.034144 6.72098e-20)
(-1.14766 0.0337441 -6.59782e-20)
(-1.18869 0.0333557 -6.31516e-20)
(-1.22955 0.032977 -1.02781e-19)
(-1.27022 0.0326066 8.54435e-20)
(-1.31071 0.0322419 -3.62503e-20)
(-1.35101 0.0318811 1.99863e-20)
(-1.39113 0.0315215 -5.40486e-20)
(-1.43106 0.031161 5.75567e-20)
(-1.47078 0.030797 4.02753e-20)
(-1.51029 0.0304274 4.3152e-20)
(-1.54957 0.0300497 -8.11237e-20)
(-1.5886 0.0296621 -5.80209e-20)
(-1.62736 0.0292622 -5.51602e-20)
(-1.66583 0.0288486 -1.61147e-20)
(-1.70398 0.0284192 -3.70417e-20)
(-1.74179 0.0279729 -3.49739e-20)
(-1.77922 0.027508 4.95797e-20)
(-1.81624 0.0270235 -7.07948e-20)
(-1.85281 0.0265183 6.82476e-21)
(-1.88891 0.0259918 -2.47685e-21)
(-1.92448 0.025443 -9.76129e-21)
(-1.95951 0.0248717 3.94906e-20)
(-1.99393 0.0242773 3.54342e-20)
(-2.02772 0.0236599 4.05021e-20)
(-2.06083 0.0230192 6.8842e-20)
(-2.09321 0.0223555 2.80623e-20)
(-2.12483 0.0216686 -1.46243e-20)
(-2.15564 0.0209593 3.63489e-20)
(-2.1856 0.0202275 1.63226e-20)
(-2.21466 0.019474 2.09615e-20)
(-2.24278 0.018699 -1.68135e-20)
(-2.26992 0.0179034 3.41663e-20)
(-2.29603 0.0170873 -3.52872e-21)
(-2.32107 0.0162518 -8.18747e-20)
(-2.345 0.0153969 -5.52029e-20)
(-2.36777 0.0145233 -2.39806e-21)
(-2.38935 0.0136306 1.50483e-20)
(-2.40968 0.0127182 9.47983e-21)
(-2.42874 0.0117848 9.84446e-21)
(-2.44647 0.0108283 -3.24054e-20)
(-2.46283 0.00984483 4.37702e-20)
(-2.47778 0.00882939 8.66002e-20)
(-2.49126 0.00777479 5.07243e-20)
(-2.50322 0.00667196 6.41067e-20)
(-2.51358 0.00551043 6.746e-20)
(-2.52226 0.00428481 -6.32225e-20)
(-2.5292 0.00301131 6.43764e-20)
(-2.53429 0.00175081 7.5479e-20)
(-2.53741 0.000602612 2.46333e-20)
(-2.53862 -0.000379617 -1.44321e-20)
(-2.53834 -0.00126617 1.50304e-20)
(-2.53651 -0.00213106 3.07034e-20)
(-2.53316 -0.00298513 -2.65468e-20)
(-2.52829 -0.00383395 -4.83805e-20)
(-2.52188 -0.00467796 -3.9601e-20)
(-2.51394 -0.00551692 3.60833e-20)
(-2.50445 -0.00635028 -4.77594e-20)
(-2.4934 -0.00717715 -2.20991e-20)
(-2.4808 -0.00799693 3.98883e-22)
(-2.46664 -0.00880868 -1.16893e-20)
(-2.45093 -0.00961186 2.09637e-20)
(-2.43366 -0.0104055 -3.23531e-20)
(-2.41484 -0.0111892 3.68286e-20)
(-2.39447 -0.011962 3.0085e-20)
(-2.37256 -0.0127235 -3.96366e-20)
(-2.34913 -0.0134728 -4.71421e-22)
(-2.32418 -0.0142097 1.83982e-20)
(-2.29773 -0.0149331 -1.69985e-20)
(-2.26979 -0.015643 3.41676e-20)
(-2.24038 -0.0163384 1.90733e-20)
(-2.20952 -0.0170192 -8.37117e-21)
(-2.17722 -0.0176844 -5.12991e-21)
(-2.14352 -0.0183342 -1.14458e-20)
(-2.10843 -0.0189675 -8.78504e-21)
(-2.07199 -0.0195846 -1.56013e-20)
(-2.03422 -0.0201851 -2.44431e-20)
(-1.99514 -0.0207698 1.51828e-20)
(-1.95479 -0.0213386 4.62923e-21)
(-1.9132 -0.0218928 -3.59451e-22)
(-1.8704 -0.0224289 7.18681e-21)
(-1.82643 -0.022949 -1.7965e-21)
(-1.78131 -0.0234525 2.79953e-20)
(-1.73509 -0.0239385 2.51346e-21)
(-1.68779 -0.0244104 3.3781e-20)
(-1.63946 -0.0248671 2.59238e-20)
(-1.59014 -0.0253068 5.72027e-20)
(-1.53987 -0.0257313 -6.95564e-20)
(-1.48868 -0.0261403 4.16054e-20)
(-1.43662 -0.0265352 1.66925e-20)
(-1.38373 -0.026916 -7.6942e-20)
(-1.33004 -0.027284 -1.35341e-19)
(-1.2756 -0.0276397 3.96044e-20)
(-1.22044 -0.0279845 1.17468e-19)
(-1.16462 -0.0283191 1.49845e-19)
(-1.10816 -0.0286448 -1.46808e-19)
(-1.05111 -0.0289623 -2.42109e-20)
(-0.993502 -0.0292726 4.41834e-20)
(-0.935381 -0.0295767 -7.49197e-20)
(-0.876782 -0.0298756 4.43293e-20)
(-0.817741 -0.0301703 1.86464e-19)
(-0.758294 -0.0304617 -2.18792e-19)
(-0.698475 -0.030751 -7.27331e-20)
(-0.638319 -0.0310392 -1.10811e-19)
(-0.577858 -0.0313277 -3.14974e-19)
(-0.517125 -0.0316174 -2.25784e-19)
(-0.45615 -0.03191 8.61248e-20)
(-0.394963 -0.0322058 9.70807e-20)
(-0.333592 -0.0325058 1.71572e-19)
(-0.272068 -0.0328119 -1.70057e-19)
(-0.210419 -0.033131 -2.64237e-19)
(-0.148671 -0.0334813 5.4045e-19)
(-0.0868509 -0.0338394 -1.93155e-19)
(-0.0250311 -0.0340359 2.39581e-19)
(0.0367055 -0.0336364 3.37783e-19)
(0.0984513 -0.0327786 5.40695e-19)
(0.160166 -0.0319139 -9.27951e-20)
(0.221794 -0.0310959 -9.41332e-20)
(0.283317 -0.0303167 -6.10747e-19)
(0.344709 -0.0295602 -2.79209e-19)
(0.405917 -0.0288057 -1.13583e-19)
(0.466821 -0.02802 3.82472e-19)
(0.527236 -0.0271458 -5.22225e-19)
(0.586596 -0.0260729 -8.08862e-19)
(0.64461 -0.0245442 1.09236e-18)
(0.69681 -0.0219397 -8.52032e-19)
(0.748507 -0.0169319 5.07693e-19)
(0.751204 -0.000286793 -4.4651e-20)
(0.00500766 -0.0208759 -2.95508e-19)
(0.0161404 -0.034787 1.47465e-20)
(0.0250735 -0.0366653 3.13942e-19)
(0.0314941 -0.0335095 1.61634e-19)
(0.0357429 -0.0280266 -3.41038e-19)
(0.0379935 -0.0214959 -1.68109e-19)
(0.0384599 -0.0146932 -8.92802e-20)
(0.0373138 -0.00809667 -1.19513e-19)
(0.0346705 -0.00198335 1.0951e-19)
(0.0306338 0.00349142 9.4317e-20)
(0.0252951 0.00822559 1.03675e-19)
(0.0185878 0.0122082 -1.02733e-19)
(0.0104982 0.0155597 1.88675e-19)
(0.00100478 0.018469 -4.34131e-20)
(-0.00992009 0.021144 -1.6313e-19)
(-0.0223152 0.0237768 -2.91967e-19)
(-0.0362355 0.0265187 -7.67945e-20)
(-0.0517558 0.029471 4.85539e-20)
(-0.0689755 0.0326912 -3.89078e-20)
(-0.0880126 0.0362079 1.89843e-19)
(-0.108963 0.0400225 -1.26117e-19)
(-0.131872 0.0441159 -9.34536e-20)
(-0.156784 0.0484825 2.41855e-19)
(-0.18375 0.0531178 4.4822e-20)
(-0.21279 0.0579852 3.57484e-20)
(-0.243867 0.0630099 1.16772e-19)
(-0.276894 0.0680871 2.55102e-20)
(-0.311737 0.0730938 -8.82853e-20)
(-0.348216 0.0779055 -1.46424e-19)
(-0.386116 0.0824179 5.49915e-20)
(-0.425205 0.0865588 -2.58495e-20)
(-0.465274 0.090259 3.18002e-20)
(-0.506121 0.0934529 -3.57382e-20)
(-0.547538 0.0961108 -1.5557e-20)
(-0.589333 0.0982263 -7.86751e-20)
(-0.631331 0.0998007 -3.09271e-20)
(-0.67337 0.100847 -6.33683e-20)
(-0.715319 0.101407 7.34858e-20)
(-0.757071 0.101531 -5.9261e-20)
(-0.798546 0.101277 1.19456e-20)
(-0.839685 0.100701 6.50091e-21)
(-0.880451 0.0998598 -1.26603e-19)
(-0.920825 0.0988075 3.7527e-20)
(-0.960799 0.0975935 6.83888e-20)
(-1.00038 0.0962631 1.80182e-19)
(-1.03959 0.094859 -7.59311e-20)
(-1.07845 0.0934261 -4.27747e-20)
(-1.11698 0.092007 1.09476e-20)
(-1.15519 0.0906306 -2.46569e-20)
(-1.19307 0.089301 4.15354e-20)
(-1.23065 0.0880138 -9.14293e-20)
(-1.26793 0.0867661 -6.11879e-20)
(-1.30492 0.0855539 6.98706e-21)
(-1.34163 0.0843731 1.24817e-19)
(-1.37806 0.0832191 4.86391e-20)
(-1.41423 0.0820869 8.20979e-20)
(-1.45012 0.0809713 2.19063e-20)
(-1.48575 0.0798669 -1.88152e-21)
(-1.5211 0.0787683 1.14397e-20)
(-1.55616 0.0776699 -9.19163e-21)
(-1.59094 0.0765667 3.3254e-20)
(-1.62541 0.0754531 2.33688e-20)
(-1.65955 0.0743247 -6.14667e-20)
(-1.69337 0.0731765 2.00198e-20)
(-1.72682 0.0720046 -2.90393e-20)
(-1.7599 0.0708049 9.66586e-21)
(-1.79259 0.0695741 -6.0973e-20)
(-1.82485 0.0683088 6.41601e-20)
(-1.85665 0.0670066 2.79162e-20)
(-1.88799 0.0656649 1.92605e-20)
(-1.91881 0.064282 1.20177e-19)
(-1.9491 0.0628559 -3.51841e-20)
(-1.97883 0.0613859 3.14288e-20)
(-2.00795 0.0598707 2.17175e-20)
(-2.03645 0.0583101 5.87089e-20)
(-2.06428 0.0567036 2.13298e-20)
(-2.09141 0.0550515 2.44111e-20)
(-2.11781 0.053354 -9.473e-20)
(-2.14344 0.051612 -5.37196e-20)
(-2.16827 0.0498261 -1.4691e-20)
(-2.19226 0.0479975 2.19829e-20)
(-2.21538 0.0461275 1.34283e-21)
(-2.2376 0.0442176 1.04288e-20)
(-2.25888 0.0422691 -9.52765e-22)
(-2.27918 0.040284 -3.84214e-20)
(-2.29847 0.0382637 7.54066e-20)
(-2.31672 0.0362105 8.82295e-21)
(-2.33389 0.0341259 7.17563e-20)
(-2.34996 0.0320121 3.11557e-21)
(-2.36489 0.0298708 3.87662e-20)
(-2.37864 0.0277034 4.79217e-20)
(-2.3912 0.0255109 1.91237e-20)
(-2.40253 0.023294 7.51124e-20)
(-2.4126 0.0210528 2.63247e-20)
(-2.42139 0.0187868 -1.68618e-19)
(-2.42888 0.016495 -6.22694e-20)
(-2.43506 0.0141764 -3.84156e-20)
(-2.43993 0.0118273 4.02934e-20)
(-2.4435 0.00944221 -7.29131e-20)
(-2.44582 0.0070221 -1.0564e-19)
(-2.44696 0.00459957 4.47568e-20)
(-2.44703 0.00225366 -4.30079e-20)
(-2.44603 5.13811e-05 -1.97748e-20)
(-2.4436 -0.00204859 -9.4776e-20)
(-2.43973 -0.00410892 -2.59203e-20)
(-2.43438 -0.00614101 7.60117e-20)
(-2.42754 -0.00815107 -1.50924e-20)
(-2.41918 -0.0101393 -1.38224e-20)
(-2.4093 -0.0121043 -6.36234e-21)
(-2.3979 -0.0140444 -7.88917e-21)
(-2.38497 -0.0159575 -4.29946e-20)
(-2.37051 -0.0178415 -4.29793e-21)
(-2.35451 -0.0196942 4.67279e-22)
(-2.33697 -0.021514 1.18571e-20)
(-2.3179 -0.0232986 -2.17841e-20)
(-2.2973 -0.0250465 -5.05344e-20)
(-2.27517 -0.0267557 -6.87376e-21)
(-2.25153 -0.0284248 -1.14185e-20)
(-2.22638 -0.0300519 7.9858e-23)
(-2.19974 -0.0316357 -1.38556e-20)
(-2.17161 -0.0331745 8.44756e-23)
(-2.14201 -0.0346673 1.87611e-20)
(-2.11096 -0.0361123 1.04488e-20)
(-2.07847 -0.0375088 -1.3651e-20)
(-2.04458 -0.038855 -1.41612e-20)
(-2.00929 -0.0401505 2.62985e-20)
(-1.97263 -0.0413936 1.10131e-20)
(-1.93463 -0.0425839 2.00755e-21)
(-1.89531 -0.0437205 -1.38431e-21)
(-1.85471 -0.0448037 -1.53408e-20)
(-1.81284 -0.0458337 -2.94669e-21)
(-1.76976 -0.0468116 -2.42507e-23)
(-1.72547 -0.0477374 -1.32223e-21)
(-1.68002 -0.0486131 -6.6909e-22)
(-1.63344 -0.049437 7.75289e-21)
(-1.58577 -0.0502011 7.64281e-21)
(-1.53704 -0.0509084 9.31191e-21)
(-1.48728 -0.0515681 1.10172e-20)
(-1.43654 -0.052177 8.27148e-21)
(-1.38485 -0.052733 1.41391e-20)
(-1.33226 -0.053237 4.07201e-20)
(-1.2788 -0.0536909 -2.74958e-20)
(-1.22452 -0.0540954 -3.18926e-20)
(-1.16944 -0.0544523 -5.55513e-20)
(-1.11362 -0.0547628 5.77084e-20)
(-1.05709 -0.0550291 -1.00575e-20)
(-0.999894 -0.0552525 6.5687e-20)
(-0.942067 -0.0554351 1.27411e-19)
(-0.88365 -0.0555782 -9.33482e-21)
(-0.824681 -0.0556836 -1.73033e-19)
(-0.765199 -0.055753 6.18271e-20)
(-0.70524 -0.0557882 1.63063e-20)
(-0.64484 -0.0557909 1.30769e-19)
(-0.584035 -0.0557629 -7.76858e-20)
(-0.52286 -0.0557062 -2.53404e-20)
(-0.461349 -0.0556227 -3.78486e-20)
(-0.399535 -0.0555145 1.84244e-19)
(-0.337449 -0.0553834 6.70903e-20)
(-0.275122 -0.0552313 2.75559e-20)
(-0.212584 -0.0550602 -3.76491e-20)
(-0.149862 -0.0548709 6.39104e-20)
(-0.0869847 -0.0546642 1.52301e-19)
(-0.02398 -0.0544401 2.14168e-19)
(0.0391358 -0.054194 -2.41675e-19)
(0.102349 -0.0539224 -5.02815e-20)
(0.165662 -0.0535923 -8.74484e-20)
(0.229016 -0.0530682 -1.24748e-19)
(0.292315 -0.0523675 -3.57802e-20)
(0.355545 -0.0516353 -2.29329e-19)
(0.418727 -0.0509109 -1.28871e-19)
(0.481839 -0.0501906 -1.81657e-19)
(0.544843 -0.0494545 -2.5195e-19)
(0.607671 -0.0486689 -3.65696e-19)
(0.670199 -0.0477768 -2.35836e-19)
(0.732232 -0.0466716 3.09524e-19)
(0.793293 -0.045153 6.63728e-19)
(0.852994 -0.0427308 -8.87026e-20)
(0.908573 -0.0384829 -3.2834e-20)
(0.963015 -0.0294186 1.74758e-19)
(0.994611 -0.00727329 -1.53921e-20)
(0.00484242 -0.0421561 1.28282e-18)
(0.0121999 -0.0534117 2.00559e-19)
(0.0157985 -0.0474416 3.0538e-20)
(0.0168038 -0.0381152 -2.71727e-19)
(0.0158737 -0.0281212 4.57937e-20)
(0.0132993 -0.0181418 7.24747e-20)
(0.0093244 -0.00849304 4.08111e-20)
(0.00408428 0.000624579 1.09554e-19)
(-0.00237191 0.00908921 -7.38957e-20)
(-0.0100539 0.0168531 1.65707e-20)
(-0.0190054 0.0239337 -1.06088e-19)
(-0.0292987 0.0303958 1.03469e-19)
(-0.0410181 0.036353 -2.23717e-19)
(-0.0542492 0.0419655 -1.6643e-20)
(-0.0690684 0.0474154 -1.22911e-20)
(-0.0855391 0.0528784 -1.65433e-19)
(-0.103713 0.0585011 1.11512e-21)
(-0.123632 0.0643872 1.6345e-19)
(-0.145328 0.0705949 2.87844e-19)
(-0.168826 0.0771399 -1.42451e-19)
(-0.194127 0.0840134 4.60295e-20)
(-0.221189 0.0911855 -1.86122e-19)
(-0.249933 0.0985871 -7.71984e-20)
(-0.280247 0.106115 -1.48576e-19)
(-0.311983 0.113644 3.93243e-20)
(-0.344962 0.121031 -1.13158e-19)
(-0.378983 0.128127 -1.32658e-19)
(-0.413841 0.134785 6.58477e-20)
(-0.449332 0.140874 -6.34005e-20)
(-0.48527 0.14629 -2.97037e-20)
(-0.521493 0.150959 5.37359e-20)
(-0.557849 0.154843 -4.14184e-20)
(-0.594206 0.157927 -1.31077e-21)
(-0.630464 0.160215 -2.52235e-22)
(-0.666542 0.161732 1.26062e-19)
(-0.702372 0.162534 -8.90776e-20)
(-0.737923 0.162692 2.72052e-20)
(-0.77319 0.162279 -7.97116e-20)
(-0.808171 0.161379 -4.44712e-20)
(-0.842875 0.160073 8.00547e-20)
(-0.877318 0.158441 4.34908e-21)
(-0.911517 0.156558 6.76503e-21)
(-0.945494 0.154492 -7.89211e-20)
(-0.979271 0.152302 -1.78612e-19)
(-1.01287 0.15004 -9.55319e-20)
(-1.0463 0.14775 -3.54072e-20)
(-1.07959 0.145469 7.25379e-20)
(-1.11274 0.143226 2.87312e-20)
(-1.14575 0.141036 1.72663e-20)
(-1.17861 0.138907 -8.23498e-20)
(-1.21133 0.136838 3.88552e-20)
(-1.24391 0.134825 2.52541e-20)
(-1.27634 0.132863 -6.1456e-20)
(-1.30863 0.130945 -1.1099e-19)
(-1.34076 0.129064 -4.31265e-20)
(-1.37274 0.127212 2.29648e-20)
(-1.40457 0.12538 -1.58664e-19)
(-1.43622 0.123561 1.31291e-19)
(-1.46769 0.121744 -3.10407e-20)
(-1.49898 0.119924 -1.45749e-21)
(-1.53006 0.11809 -1.23845e-19)
(-1.56093 0.116237 1.62543e-20)
(-1.59155 0.114357 8.06096e-20)
(-1.62193 0.112444 -4.89609e-20)
(-1.65203 0.110491 7.84235e-20)
(-1.68183 0.108494 5.47592e-20)
(-1.71132 0.106447 9.62692e-20)
(-1.74045 0.104347 -1.57898e-19)
(-1.76922 0.102189 1.87211e-20)
(-1.79759 0.0999702 2.05495e-20)
(-1.82554 0.0976888 -3.6531e-20)
(-1.85302 0.0953424 6.65008e-20)
(-1.88002 0.0929295 -3.24186e-20)
(-1.90651 0.0904492 -4.11302e-21)
(-1.93244 0.0879011 -1.75206e-19)
(-1.95778 0.085285 -8.2123e-20)
(-1.98251 0.0826015 4.64764e-20)
(-2.00659 0.0798513 5.65635e-20)
(-2.02998 0.0770357 5.59284e-20)
(-2.05265 0.0741562 -6.11185e-21)
(-2.07456 0.0712146 2.79073e-20)
(-2.09568 0.0682131 -1.01012e-19)
(-2.11598 0.0651541 8.89585e-20)
(-2.13542 0.0620401 3.19868e-20)
(-2.15395 0.0588741 -2.13285e-20)
(-2.17157 0.0556587 -1.0436e-19)
(-2.18821 0.0523974 6.06171e-21)
(-2.20386 0.0490931 -2.30546e-20)
(-2.21849 0.0457493 -9.86861e-20)
(-2.23205 0.0423692 -8.97457e-20)
(-2.24452 0.038956 -4.10045e-20)
(-2.25588 0.0355128 -6.23132e-20)
(-2.26609 0.0320428 -5.19789e-20)
(-2.27513 0.0285497 -2.33193e-20)
(-2.28299 0.0250372 1.63853e-19)
(-2.28963 0.0215109 4.28786e-20)
(-2.29506 0.017978 5.93351e-20)
(-2.29926 0.014449 -1.30692e-19)
(-2.30224 0.0109386 1.42995e-19)
(-2.304 0.007467 5.2091e-20)
(-2.30452 0.004056 -2.59597e-20)
(-2.30378 0.000708446 9.79149e-21)
(-2.30171 -0.00260388 1.01937e-19)
(-2.29825 -0.00589647 1.95702e-20)
(-2.29337 -0.00916136 -7.74096e-20)
(-2.28706 -0.0123951 1.82539e-20)
(-2.27931 -0.0155954 1.07975e-19)
(-2.27008 -0.0187592 -1.53262e-20)
(-2.25939 -0.0218832 1.53282e-20)
(-2.24722 -0.0249639 8.84592e-20)
(-2.23356 -0.0279979 4.40212e-20)
(-2.21842 -0.0309817 -3.49629e-21)
(-2.20178 -0.033912 -3.71018e-20)
(-2.18365 -0.0367856 -5.28799e-20)
(-2.16403 -0.0395995 3.32084e-20)
(-2.14292 -0.0423506 -8.13034e-21)
(-2.12034 -0.0450361 1.09829e-20)
(-2.09628 -0.0476534 6.24933e-20)
(-2.07075 -0.0501999 3.25831e-20)
(-2.04377 -0.0526732 7.41215e-21)
(-2.01534 -0.0550709 -3.0148e-21)
(-1.98549 -0.0573908 -2.96534e-20)
(-1.95422 -0.0596309 -3.8925e-20)
(-1.92156 -0.0617892 -2.59944e-20)
(-1.88752 -0.0638638 2.83263e-20)
(-1.85212 -0.0658531 -3.88093e-20)
(-1.81539 -0.0677554 -1.32472e-20)
(-1.77735 -0.0695693 -6.25481e-21)
(-1.73803 -0.0712937 1.27061e-20)
(-1.69745 -0.0729283 1.33477e-20)
(-1.65565 -0.0744735 6.03287e-21)
(-1.61264 -0.0759308 7.29482e-22)
(-1.56848 -0.0773013 -2.26998e-21)
(-1.52317 -0.078585 -3.02958e-22)
(-1.47676 -0.0797809 -8.14824e-21)
(-1.42929 -0.0808834 3.43106e-22)
(-1.38077 -0.0818928 5.12119e-21)
(-1.33125 -0.0828175 -6.12715e-21)
(-1.28078 -0.0836569 -9.84287e-21)
(-1.22938 -0.0844085 2.51954e-20)