/*--------------------------------*- C++ -*----------------------------------*\
| =========                 |                                                 |
| \\      /  F ield         | OpenFOAM: The Open Source CFD Toolbox           |
|  \\    /   O peration     | Version:  4.1                                   |
|   \\  /    A nd           | Web:      www.OpenFOAM.org                      |
|    \\/     M anipulation  |                                                 |
\*---------------------------------------------------------------------------*/
FoamFile
{
    version     2.0;
    format      ascii;
    class       volScalarField;
    location    "200";
    object      epsilon;
}
// * * * * * * * * * * * * * * * * * * * * * * * * * * * * * * * * * * * * * //

dimensions      [0 2 -3 0 0 0 0];

internalField   nonuniform List<scalar> 
12225
(
1130.08
2611.29
3861.02
4651.11
5051.65
5192.46
5173.82
5117.8
5004.89
4882.52
4764.47
4653.43
4555.59
4464.91
4390.84
4317.32
4268.46
4200.44
82.7602
272.871
458.216
608.746
717.649
788.413
828.464
852.86
867.805
877.376
885.905
893.301
902.012
910.542
920.177
930.012
938.876
951.243
20.0925
50.8878
83.5861
112.867
137.272
156.508
170.103
179.71
185.835
190.097
192.519
194.535
195.591
197.038
197.795
199.478
199.805
203.643
14.5281
21.3624
28.9824
37.1648
44.5723
51.1729
56.5281
61.0219
64.3815
67.1806
69.0919
70.7384
71.7372
72.667
73.1318
73.6792
73.7227
74.5011
14.3168
16.0494
17.835
20.5349
23.1893
25.7698
28.0349
30.1126
31.814
33.3642
34.5547
35.6667
36.4517
37.2374
37.7106
38.2813
38.49
38.9677
14.6422
14.8436
15.1747
15.9428
16.8538
17.861
18.8175
19.7634
20.5872
21.3855
22.0368
22.6818
23.165
23.6816
24.0117
24.4362
24.6205
25.0162
14.74
14.587
14.5747
14.6707
14.8293
15.1337
15.46
15.8264
16.1694
16.53
16.8378
17.1629
17.4153
17.7003
17.8899
18.1425
18.2633
18.5031
14.7639
14.5804
14.4526
14.3687
14.3435
14.3686
14.4291
14.5395
14.6592
14.8017
14.9292
15.078
15.1955
15.3383
15.4348
15.5688
15.6373
15.7701
14.7674
14.5895
14.4323
14.2949
14.1853
14.1068
14.0533
14.0267
14.0272
14.0369
14.0564
14.0935
14.1225
14.1702
14.2001
14.2501
14.2781
14.3312
14.7666
14.5938
14.4319
14.2813
14.1436
14.0221
13.9158
13.8254
13.7501
13.6906
13.638
13.6013
13.5658
13.5449
13.5202
13.5094
13.49
13.4918
14.766
14.5944
14.4325
14.2802
14.1367
14.0032
13.8788
13.765
13.6595
13.5655
13.4777
13.4012
13.3286
13.2669
13.2061
13.1571
13.1043
13.0668
14.7658
14.5942
14.4323
14.2799
14.1357
14.0001
13.8717
13.7515
13.6377
13.5319
13.4316
13.339
13.2509
13.1703
13.0928
13.0229
12.9544
12.8939
14.7657
14.594
14.432
14.2794
14.1351
13.999
13.8702
13.7486
13.6333
13.5246
13.4214
13.3241
13.2316
13.1447
13.0618
12.984
12.9097
12.8401
14.7657
14.5939
14.4318
14.2789
14.1346
13.9982
13.8693
13.7473
13.6318
13.5225
13.4187
13.3204
13.2271
13.1386
13.0544
12.9746
12.8986
12.8265
14.7657
14.5938
14.4316
14.2786
14.1342
13.9977
13.8686
13.7465
13.6308
13.5212
13.4173
13.3187
13.2252
13.1363
13.0519
12.9716
12.8952
12.8226
14.7657
14.5937
14.4315
14.2784
14.1338
13.9972
13.868
13.7458
13.63
13.5203
13.4163
13.3175
13.2238
13.1348
13.0502
12.9698
12.8933
12.8205
14.7657
14.5937
14.4314
14.2783
14.1336
13.997
13.8677
13.7453
13.6295
13.5196
13.4155
13.3167
13.2229
13.1338
13.0491
12.9686
12.892
12.8191
14.7657
14.5937
14.4314
14.2782
14.1336
13.9968
13.8675
13.7451
13.6292
13.5193
13.4151
13.3163
13.2224
13.1333
13.0485
12.9679
12.8913
12.8184
14.7657
14.5937
14.4314
14.2783
14.1336
13.9969
13.8675
13.7451
13.6292
13.5193
13.4151
13.3163
13.2224
13.1332
13.0485
12.9679
12.8912
12.8183
14.7657
14.5937
14.4315
14.2783
14.1337
13.997
13.8677
13.7453
13.6294
13.5196
13.4154
13.3166
13.2228
13.1336
13.049
12.9685
12.892
12.8191
14.7657
14.5937
14.4316
14.2785
14.1339
13.9972
13.868
13.7457
13.63
13.5203
13.4165
13.318
13.2248
13.1362
13.0523
12.9726
12.8971
12.8252
14.7658
14.5937
14.4317
14.2786
14.1342
13.9978
13.8692
13.7478
13.6336
13.5258
13.4247
13.3292
13.2398
13.1553
13.0764
13.0015
12.932
12.8654
14.766
14.5935
14.4319
14.2789
14.1364
14.0034
13.881
13.7678
13.665
13.5705
13.4854
13.4074
13.3375
13.2731
13.2161
13.162
13.1157
13.0695
14.7663
14.5917
14.4339
14.2884
14.1664
14.0629
13.9809
13.9155
13.8697
13.8353
13.8154
13.8021
13.7989
13.8004
13.8055
13.8122
13.8267
13.8323
14.7628
14.5925
14.48
14.4129
14.4221
14.4696
14.5552
14.6733
14.8187
14.9641
15.1253
15.2747
15.4344
15.5743
15.7248
15.8474
15.9866
16.0879
14.7522
14.7226
14.9518
15.2674
15.8064
16.3911
17.0246
17.6299
18.2491
18.8062
19.3673
19.8502
20.34
20.7421
21.1619
21.4855
21.8444
22.0945
15.1007
15.7871
17.6508
19.7827
22.0002
24.1073
26.1674
28.012
29.8013
31.326
32.8224
34.0261
35.2451
36.1569
37.1362
37.7993
38.5845
39.0452
17.2945
24.2577
33.6643
42.1568
50.1571
57.5553
64.5065
70.6105
76.2592
80.9088
85.2587
88.5407
91.7839
93.9336
96.3403
97.6298
99.4694
100.157
41.9837
92.2693
140.377
183.842
226.191
266.311
302.451
333.56
359.965
381.456
399.379
413.177
425.139
433.516
441.796
446.695
453.333
455.821
569.978
929.775
1287.43
1576.94
1844.37
2077.97
2271.58
2424.46
2538.79
2619.86
2672.47
2703.11
2715.49
2713.22
2704.13
2688.18
2666.13
2640.81
0.458741
0.448451
0.749056
1.04716
1.31079
1.53105
1.72575
1.90973
2.08292
2.25327
2.42983
2.62331
2.84979
3.13408
3.48168
3.88091
4.32513
4.81621
5.35839
5.95884
6.62345
7.35968
8.17263
9.06928
10.0545
11.1367
12.3225
13.6031
14.9798
16.4547
18.028
19.7029
21.4801
23.3642
25.3557
27.4607
29.6814
32.0261
34.5066
37.145
39.9663
42.9617
46.089
49.3708
52.8037
56.3977
60.153
64.0794
68.1766
72.4552
76.9143
81.565
86.4059
91.4485
96.6906
102.144
107.806
113.688
119.786
126.113
132.663
139.447
146.46
153.714
161.2
168.93
176.894
185.105
193.55
202.241
211.164
220.33
229.724
239.355
249.206
259.287
269.577
280.085
290.789
301.698
312.785
324.058
335.49
347.084
358.812
370.675
382.639
394.704
406.836
419.023
431.234
443.439
455.605
467.698
479.685
491.544
503.279
514.961
526.55
537.97
549.219
560.276
571.112
581.703
592.021
602.04
611.73
621.065
630.016
638.558
646.662
654.303
661.456
668.094
674.199
679.745
684.717
689.096
692.873
696.037
698.598
700.576
701.816
702.249
702.171
701.315
700.016
698.2
695.622
692.486
688.772
684.512
679.736
674.47
668.748
662.598
656.059
649.168
641.962
634.483
626.778
618.887
610.846
602.711
594.514
586.32
578.17
570.134
562.244
554.554
547.115
539.936
533.051
526.492
520.347
514.613
509.3
504.45
499.962
495.923
492.346
489.193
486.655
484.637
483.031
481.829
480.998
480.509
480.274
480.153
480.176
482.235
487.014
492.372
497.751
503.096
507.913
511.763
512.543
493.295
1.79939
0.995197
0.882783
0.916692
1.00449
1.12189
1.2618
1.42167
1.59886
1.79355
2.00769
2.24454
2.50827
2.80304
3.13044
3.49004
3.88175
4.30665
4.7664
5.26299
5.79808
6.37325
6.98957
7.64818
8.34976
9.09506
9.88396
10.7154
11.5903
12.5112
13.4787
14.494
15.5565
16.6665
17.8257
19.0365
20.301
21.6221
23.003
24.4468
25.9547
27.5252
29.1569
30.8537
32.6163
34.4471
36.3472
38.319
40.3638
42.4836
44.6796
46.9539
49.3076
51.7425
54.2595
56.8604
59.5458
62.3174
65.1754
68.1213
71.155
74.2779
77.4894
80.7907
84.1809
87.6609
91.2294
94.8868
98.6315
102.463
106.381
110.383
114.467
118.632
122.876
127.196
131.589
136.054
140.586
145.183
149.839
154.551
159.314
164.123
168.972
173.856
178.766
183.697
188.639
193.586
198.527
203.451
208.35
213.217
218.049
222.851
227.645
232.469
237.334
242.125
246.852
251.503
256.067
260.537
264.9
269.146
273.265
277.247
281.08
284.754
288.259
291.584
294.72
297.656
300.383
302.893
305.178
307.231
309.046
310.618
311.943
313.014
313.808
314.325
314.578
314.558
314.334
313.872
313.122
312.127
310.889
309.421
307.734
305.84
303.75
301.478
299.036
296.441
293.708
290.852
287.892
284.841
281.719
278.545
275.336
272.115
268.903
265.723
262.596
259.542
256.578
253.712
250.96
248.339
245.875
243.572
241.448
239.511
237.748
236.181
234.801
233.619
232.689
231.995
231.494
231.173
231.038
231.099
231.316
231.668
232.182
233.23
234.891
236.75
238.639
240.531
242.275
243.943
245.074
245.384
3.46889
1.64732
1.32904
1.28089
1.32493
1.41852
1.5481
1.70897
1.89886
2.11661
2.36165
2.63372
2.93284
3.25901
3.61199
3.99139
4.39711
4.82954
5.28947
5.77789
6.29578
6.84415
7.42391
8.03607
8.68169
9.36223
10.0797
10.8304
11.6121
12.4208
13.2651
14.1479
15.0704
16.034
17.0399
18.0898
19.1849
20.3266
21.516
22.7539
24.0411
25.3781
26.7659
28.2066
29.7018
31.252
32.8582
34.5217
36.2436
38.0251
39.8671
41.7709
43.7372
45.7672
47.8615
50.0211
52.2466
54.5386
56.8977
59.3245
61.819
64.3819
67.013
69.7126
72.4805
75.3165
78.2203
81.1915
84.2294
87.3332
90.5021
93.7349
97.0303
100.387
103.803
107.277
110.807
114.39
118.025
121.708
125.437
129.208
133.018
136.864
140.741
144.645
148.572
152.517
156.475
160.441
164.41
168.377
172.339
176.294
180.24
184.18
188.117
192.055
195.974
199.848
203.673
207.44
211.142
214.771
218.319
221.778
225.138
228.393
231.532
234.549
237.433
240.177
242.773
245.212
247.487
249.591
251.517
253.258
254.809
256.165
257.322
258.273
259.012
259.542
259.832
259.917
259.838
259.547
259.044
258.341
257.445
256.365
255.108
253.683
252.1
250.369
248.501
246.508
244.402
242.196
239.902
237.535
235.106
232.633
230.128
227.608
225.091
222.592
220.128
217.713
215.362
213.084
210.892
208.798
206.816
204.954
203.222
201.628
200.172
198.863
197.701
196.694
195.857
195.187
194.669
194.298
194.074
193.991
194.013
194.154
194.406
194.894
195.612
196.423
197.251
198.049
198.79
199.637
200.463
202.163
5.0382
2.28736
1.81261
1.71067
1.73046
1.81632
1.94796
2.11741
2.32104
2.55671
2.82275
3.11752
3.43941
3.78694
4.15883
4.55419
4.97263
5.41425
5.87959
6.36944
6.88474
7.42648
7.99559
8.59293
9.21912
9.87443
10.5583
11.274
12.024
12.8126
13.6385
14.502
15.4039
16.3455
17.3279
18.3524
19.4205
20.5333
21.6907
22.8932
24.1415
25.4359
26.7767
28.163
29.5998
31.088
32.6289
34.2233
35.8725
37.5775
39.3392
41.1587
43.0369
44.9747
46.9729
49.0324
51.1536
53.3373
55.584
57.8943
60.2685
62.7072
65.2104
67.7784
70.4112
73.1089
75.8711
78.6976
81.5881
84.5418
87.5582
90.6362
93.775
96.9733
100.23
103.543
106.91
110.331
113.803
117.323
120.889
124.498
128.147
131.834
135.554
139.304
143.08
146.879
150.696
154.527
158.37
162.219
166.071
169.925
173.776
177.625
181.468
185.297
189.1
192.865
196.584
200.251
203.858
207.397
210.861
214.241
217.529
220.717
223.798
226.761
229.6
232.306
234.871
237.287
239.546
241.642
243.567
245.314
246.879
248.256
249.439
250.424
251.209
251.792
252.151
252.294
252.277
252.051
251.626
251.007
250.202
249.217
248.06
246.739
245.263
243.642
241.886
240.006
238.014
235.922
233.742
231.487
229.169
226.802
224.401
221.979
219.551
217.133
214.739
212.384
210.078
207.834
205.662
203.575
201.58
199.689
197.907
196.243
194.699
193.282
191.996
190.843
189.829
188.953
188.208
187.59
187.094
186.707
186.417
186.214
186.091
186.111
186.216
186.368
186.545
186.665
186.777
187.099
187.565
188.817
6.40502
2.91224
2.29974
2.15233
2.1515
2.22939
2.36015
2.53281
2.74215
2.98509
3.25928
3.56256
3.89287
4.24834
4.62746
5.0292
5.45307
5.89913
6.36783
6.85999
7.37657
7.91864
8.4873
9.08362
9.70865
10.3634
11.0492
11.7676
12.5205
13.3092
14.1344
14.9969
15.8976
16.8374
17.8172
18.8378
19.8999
21.0041
22.1519
23.3444
24.5826
25.8676
27.2009
28.5847
30.0192
31.5052
33.0439
34.6363
36.2835
37.9868
39.7471
41.5657
43.4437
45.3822
47.3825
49.4453
51.5711
53.7609
56.0153
58.3351
60.7211
63.1737
65.6934
68.2808
70.936
73.6593
76.4508
79.3104
82.238
85.2331
88.2954
91.4241
94.6185
97.8776
101.2
104.585
108.03
111.534
115.095
118.71
122.377
126.094
129.858
133.665
137.512
141.397
145.314
149.261
153.233
157.227
161.238
165.262
169.296
173.335
177.374
181.409
185.431
189.435
193.41
197.349
201.243
205.085
208.868
212.582
216.221
219.775
223.236
226.597
229.847
232.978
235.982
238.85
241.574
244.145
246.555
248.796
250.861
252.743
254.436
255.934
257.231
258.323
259.206
259.879
260.332
260.546
260.581
260.402
260.016
259.428
258.644
257.671
256.516
255.187
253.693
252.045
250.252
248.325
246.277
244.12
241.865
239.526
237.115
234.647
232.135
229.593
227.035
224.477
221.932
219.414
216.936
214.508
212.143
209.849
207.637
205.515
203.49
201.569
199.756
198.057
196.475
195.012
193.67
192.448
191.341
190.345
189.454
188.658
187.945
187.304
186.728
186.244
185.806
185.419
185.04
184.653
184.303
184.142
184.209
184.83
7.59721
3.50027
2.76842
2.57725
2.55704
2.62479
2.75089
2.92167
3.13043
3.37329
3.64747
3.95068
4.28086
4.63622
5.01536
5.41733
5.84168
6.28844
6.75807
7.25132
7.76915
8.31265
8.88297
9.48131
10.1089
10.7669
11.4566
12.1794
12.9366
13.7293
14.5585
15.4252
16.3302
17.2747
18.2596
19.2858
20.3543
21.4662
22.6227
23.8251
25.0744
26.3722
27.7196
29.1181
30.5688
32.0729
33.6315
35.2461
36.9179
38.6482
40.4385
42.2899
44.2038
46.1813
48.2235
50.3319
52.5078
54.7524
57.0669
59.4524
61.9098
64.4402
67.0443
69.723
72.4768
75.3063
78.2118
81.1937
84.252
87.3866
90.5974
93.8838
97.2452
100.681
104.19
107.77
111.421
115.14
118.926
122.776
126.688
130.659
134.686
138.766
142.895
147.069
151.284
155.537
159.823
164.137
168.474
172.831
177.2
181.576
185.954
190.326
194.685
199.023
203.331
207.602
211.827
215.998
220.107
224.145
228.103
231.971
235.742
239.406
242.953
246.373
249.659
252.8
255.787
258.61
261.263
263.734
266.018
268.105
269.989
271.664
273.122
274.36
275.373
276.159
276.714
277.012
277.096
276.955
276.59
276.005
275.207
274.201
272.995
271.598
270.019
268.269
266.358
264.297
262.1
259.778
257.344
254.812
252.195
249.506
246.761
243.974
241.159
238.331
235.505
232.693
229.91
227.166
224.474
221.842
219.282
216.8
214.405
212.102
209.897
207.794
205.797
203.907
202.125
200.449
198.878
197.408
196.033
194.744
193.532
192.387
191.302
190.28
189.307
188.377
187.474
186.599
185.788
185.16
184.744
184.756
9.31877
4.16568
3.23914
2.9816
2.93318
2.98512
3.10204
3.26666
3.47048
3.7087
3.97818
4.27658
4.60197
4.95278
5.3278
5.72625
6.14775
6.59235
7.06047
7.55279
8.07021
8.61379
9.18464
9.78396
10.4129
11.0728
11.7649
12.4903
13.2503
14.0461
14.8787
15.7493
16.6589
17.6087
18.5997
19.6333
20.7105
21.8326
23.001
24.2171
25.4822
26.7977
28.1653
29.5863
31.0621
32.5944
34.1845
35.8341
37.5449
39.3183
41.1561
43.0599
45.0313
47.072
49.1836
51.3678
53.6264
55.9608
58.3727
60.8635
63.4348
66.0878
68.8238
71.6439
74.5492
77.5405
80.6186
83.7842
87.0374
90.3787
93.8079
97.3249
100.929
104.62
108.396
112.256
116.2
120.224
124.327
128.506
132.759
137.082
141.472
145.926
150.44
155.008
159.627
164.292
168.998
173.739
178.509
183.303
188.114
192.934
197.757
202.574
207.377
212.158
216.907
221.617
226.277
230.879
235.414
239.872
244.243
248.517
252.684
256.735
260.658
264.444
268.083
271.564
274.878
278.013
280.962
283.714
286.261
288.593
290.704
292.586
294.232
295.636
296.794
297.702
298.359
298.74
298.871
298.758
298.397
297.793
296.951
295.879
294.584
293.076
291.364
289.459
287.373
285.117
282.704
280.147
277.461
274.659
271.754
268.763
265.699
262.577
259.413
256.222
253.019
249.818
246.632
243.473
240.355
237.286
234.276
231.334
228.467
225.682
222.984
220.378
217.866
215.452
213.135
210.917
208.794
206.766
204.828
202.974
201.197
199.489
197.845
196.263
194.738
193.268
191.847
190.486
189.217
188.133
187.235
186.639
11.4314
4.88069
3.69852
3.35446
3.26903
3.29978
3.4037
3.55904
3.75516
3.98619
4.24854
4.53976
4.85801
5.20192
5.57048
5.96306
6.37937
6.81949
7.28379
7.77291
8.28767
8.82905
9.39812
9.99603
10.6239
11.2831
11.9747
12.7
13.4603
14.2568
15.0907
15.9632
16.8757
17.8294
18.8255
19.8656
20.951
22.0833
23.2638
24.4944
25.7766
27.1121
28.5027
29.95
31.4559
33.0222
34.6508
36.3435
38.1025
39.9297
41.8271
43.7969
45.8412
47.962
50.1615
52.442
54.8054
57.2539
59.7895
62.4143
65.1302
67.9389
70.8423
73.8419
76.9391
80.1354
83.4318
86.8293
90.3286
93.9302
97.6343
101.441
105.349
109.359
113.47
117.68
121.987
126.39
130.886
135.473
140.146
144.904
149.741
154.655
159.639
164.689
169.799
174.964
180.178
185.434
190.725
196.044
201.383
206.734
212.087
217.435
222.767
228.073
233.345
238.573
243.745
248.853
253.885
258.831
263.68
268.422
273.044
277.537
281.889
286.089
290.125
293.987
297.664
301.145
304.419
307.477
310.309
312.905
315.257
317.357
319.197
320.771
322.073
323.1
323.85
324.302
324.47
324.367
323.989
323.339
322.425
321.254
319.835
318.176
316.289
314.184
311.874
309.371
306.688
303.841
300.842
297.708
294.452
291.09
287.637
284.11
280.524
276.895
273.239
269.57
265.902
262.248
258.62
255.03
251.488
248.001
244.578
241.226
237.95
234.755
231.646
228.624
225.693
222.852
220.104
217.446
214.877
212.394
209.994
207.671
205.424
203.251
201.152
199.128
197.182
195.329
193.596
192.057
190.687
189.546
13.4844
5.55413
4.11478
3.68089
3.55544
3.56261
3.65143
3.79573
3.98266
4.20524
4.45935
4.74234
5.0524
5.38826
5.74906
6.13429
6.54375
6.97754
7.43602
7.91979
8.42961
8.96643
9.53128
10.1253
10.7495
11.4051
12.0936
12.8161
13.574
14.3687
15.2015
16.0739
16.9873
17.9431
18.943
19.9884
21.0811
22.2227
23.4152
24.6605
25.9606
27.3176
28.7335
30.2103
31.7502
33.3556
35.0286
36.7717
38.5873
40.4779
42.446
44.4943
46.6255
48.8421
51.1469
53.5426
56.0319
58.6174
61.3019
64.0877
66.9775
69.9736
73.0783
76.2937
79.6217
83.0641
86.6225
90.2981
94.0921
98.0051
102.038
106.19
110.461
114.851
119.359
123.984
128.722
133.573
138.533
143.599
148.768
154.035
159.395
164.845
170.377
175.986
181.666
187.409
193.208
199.056
204.944
210.864
216.805
222.759
228.714
234.662
240.591
246.489
252.347
258.153
263.895
269.562
275.143
280.625
285.997
291.246
296.36
301.329
306.138
310.776
315.232
319.493
323.547
327.384
330.991
334.358
337.475
340.332
342.919
345.228
347.251
348.981
350.412
351.539
352.359
352.857
353.041
352.922
352.496
351.77
350.75
349.444
347.861
346.012
343.907
341.559
338.979
336.182
333.181
329.992
326.629
323.108
319.445
315.655
311.756
307.762
303.693
299.562
295.388
291.184
286.967
282.75
278.545
274.363
270.217
266.114
262.063
258.071
254.145
250.291
246.513
242.815
239.201
235.673
232.233
228.885
225.627
222.462
219.388
216.406
213.516
210.721
208.024
205.43
202.947
200.591
198.386
196.389
194.555
192.918
15.3774
6.1572
4.47512
3.95489
3.78836
3.77268
3.8453
3.9777
4.15476
4.36838
4.61385
4.88827
5.18976
5.51709
5.86947
6.24648
6.64798
7.07411
7.52523
8.0019
8.50489
9.03518
9.59387
10.1821
10.8005
11.4504
12.1334
12.8509
13.6044
14.3954
15.2256
16.0964
17.0095
17.9667
18.9697
20.0202
21.1202
22.2716
23.4761
24.7371
26.0571
27.4381
28.8828
30.3936
31.9732
33.6242
35.3495
37.152
39.0346
41.0004
43.0525
45.1943
47.4289
49.7597
52.19
54.7232
57.3626
60.1116
62.9734
65.9512
69.0481
72.2671
75.611
79.0825
82.6841
86.418
90.2861
94.2901
98.4314
102.711
107.129
111.686
116.383
121.217
126.187
131.293
136.532
141.901
147.396
153.014
158.751
164.601
170.559
176.618
182.772
189.014
195.336
201.729
208.185
214.694
221.246
227.832
234.439
241.057
247.675
254.279
260.858
267.399
273.889
280.317
286.668
292.931
299.091
305.137
311.054
316.83
322.452
327.905
333.179
338.258
343.131
347.785
352.208
356.387
360.311
363.969
367.349
370.442
373.237
375.726
377.901
379.755
381.28
382.471
383.325
383.831
383.993
383.819
383.305
382.46
381.293
379.809
378.02
375.936
373.569
370.932
368.037
364.899
361.534
357.955
354.18
350.224
346.104
341.836
337.437
332.925
328.317
323.631
318.883
314.09
309.266
304.428
299.587
294.756
289.946
285.168
280.429
275.739
271.105
266.532
262.028
257.596
253.243
248.973
244.791
240.702
236.709
232.817
229.029
225.35
221.784
218.339
215.02
211.838
208.804
205.934
203.248
200.791
198.502
196.404
17.0555
6.67764
4.77514
4.17512
3.96888
3.93122
3.98809
4.10854
4.27561
4.48021
4.71704
4.98293
5.27588
5.59462
5.93839
6.30681
6.69982
7.11762
7.56062
8.02904
8.52378
9.04602
9.59708
10.1786
10.7905
11.4343
12.1117
12.8241
13.5732
14.3607
15.1882
16.0576
16.9707
17.9296
18.9362
19.9927
21.1011
22.2637
23.4829
24.7638
26.1083
27.5191
28.9993
30.5521
32.1806
33.8881
35.678
37.5536
39.5187
41.577
43.7324
45.9886
48.3499
50.8202
53.4035
56.1041
58.9259
61.873
64.9494
68.1589
71.5054
74.9923
78.6232
82.4011
86.3292
90.4099
94.6456
99.0383
103.589
108.3
113.171
118.202
123.393
128.742
134.249
139.911
145.725
151.687
157.794
164.04
170.421
176.929
183.559
190.301
197.15
204.095
211.127
218.236
225.412
232.643
239.919
247.225
254.551
261.882
269.205
276.507
283.773
290.989
298.14
305.213
312.192
319.064
325.814
332.427
338.89
345.187
351.305
357.231
362.949
368.446
373.709
378.725
383.481
387.964
392.163
396.066
399.663
402.942
405.895
408.512
410.785
412.707
414.272
415.473
416.306
416.766
416.853
416.572
415.916
414.9
413.533
411.822
409.776
407.408
404.731
401.756
398.499
394.974
391.197
387.183
382.949
378.512
373.889
369.097
364.153
359.076
353.884
348.595
343.227
337.796
332.32
326.813
321.289
315.761
310.241
304.74
299.267
293.831
288.441
283.104
277.828
272.619
267.484
262.431
257.466
252.597
247.832
243.179
238.645
234.239
229.972
225.853
221.894
218.108
214.51
211.115
207.941
205.021
202.287
199.759
18.4842
7.10996
5.01497
4.34402
4.10146
4.04307
4.08492
4.19376
4.35107
4.54686
4.77534
5.03303
5.31778
5.62831
5.96386
6.32382
6.70828
7.1178
7.55343
8.01446
8.50198
9.01699
9.56054
10.1335
10.737
11.3731
12.0435
12.75
13.4944
14.2788
15.105
15.9751
16.8914
17.8562
18.8721
19.9419
21.0674
22.251
23.4953
24.8047
26.1832
27.6344
29.1625
30.7716
32.4655
34.248
36.1228
38.0944
40.1669
42.345
44.6333
47.0365
49.5594
52.207
54.9841
57.8957
60.9465
64.1415
67.4851
70.9821
74.6368
78.4533
82.4356
86.5874
90.9118
95.4119
100.09
104.949
109.988
115.211
120.617
126.205
131.975
137.925
144.053
150.355
156.829
163.469
170.269
177.225
184.329
191.573
198.948
206.447
214.058
221.771
229.576
237.459
245.408
253.411
261.454
269.522
277.6
285.674
293.729
301.747
309.714
317.613
325.428
333.143
340.742
348.21
355.529
362.686
369.663
376.447
383.021
389.372
395.486
401.347
406.942
412.258
417.281
422
426.403
430.478
434.215
437.604
440.636
443.302
445.596
447.509
449.036
450.172
450.911
451.252
451.194
450.735
449.868
448.618
446.99
444.992
442.633
439.925
436.883
433.519
429.85
425.889
421.653
417.158
412.422
407.461
402.293
396.935
391.405
385.723
379.907
373.976
367.949
361.843
355.676
349.463
343.219
336.958
330.691
324.431
318.189
311.973
305.793
299.659
293.579
287.56
281.613
275.747
269.971
264.296
258.733
253.295
247.993
242.841
237.852
233.044
228.43
224.029
219.857
215.931
212.264
208.885
205.716
202.785
19.6478
7.45379
5.19737
4.46583
4.19138
4.11405
4.14206
4.24003
4.38816
4.57576
4.79661
5.04675
5.32402
5.62733
5.95647
6.30977
6.68741
7.08941
7.51588
7.96791
8.44671
8.95348
9.48956
10.0565
10.6555
11.2882
11.9566
12.6625
13.4083
14.1963
15.0291
15.9086
16.8371
17.8176
18.8529
19.9457
21.0967
22.3113
23.5942
24.9502
26.3835
27.8985
29.4996
31.1915
32.9799
34.8691
36.8639
38.9692
41.1903
43.5327
46.0019
48.6036
51.3435
54.2275
57.2613
60.4506
63.801
67.3181
71.0071
74.8731
78.9211
83.1555
87.5807
92.2003
97.0179
102.036
107.258
112.684
118.316
124.154
130.199
136.448
142.9
149.552
156.402
163.443
170.672
178.082
185.665
193.415
201.323
209.378
217.571
225.891
234.324
242.86
251.484
260.182
268.94
277.743
286.574
295.418
304.258
313.075
321.854
330.577
339.225
347.781
356.227
364.546
372.719
380.73
388.562
396.197
403.621
410.816
417.768
424.462
430.882
437.015
442.847
448.364
453.555
458.406
462.908
467.048
470.818
474.209
477.213
479.822
482.03
483.831
485.219
486.191
486.743
486.871
486.584
485.851
484.699
483.139
481.179
478.825
476.087
472.978
469.512
465.705
461.57
457.123
452.381
447.361
442.08
436.555
430.803
424.843
418.693
412.372
405.9
399.296
392.58
385.769
378.883
371.936
364.946
357.925
350.887
343.845
336.809
329.79
322.799
315.846
308.941
302.095
295.317
288.62
282.017
275.521
269.147
262.911
256.829
250.919
245.201
239.695
234.421
229.399
224.65
220.192
216.035
212.203
208.614
205.309
20.5341
7.70872
5.32529
4.54512
4.24425
4.15055
4.16653
4.25498
4.39506
4.5757
4.7909
5.03557
5.30741
5.60472
5.9264
6.2726
6.64352
7.03962
7.46143
7.90968
8.38548
8.89019
9.42543
9.99312
10.5944
11.2312
11.9057
12.6203
13.3777
14.1804
15.0309
15.9297
16.8815
17.89
18.9591
20.0927
21.295
22.5704
23.924
25.3609
26.8863
28.5053
30.2235
32.0468
33.9816
36.0332
38.2076
40.5111
42.9499
45.5306
48.2599
51.1444
54.191
57.4062
60.7967
64.3688
68.1288
72.0826
76.2358
80.5939
85.1617
89.9437
94.944
100.166
105.613
111.286
117.188
123.319
129.679
136.267
143.082
150.121
157.38
164.855
172.54
180.43
188.517
196.793
205.249
213.874
222.658
231.589
240.655
249.842
259.136
268.522
277.985
287.507
297.074
306.667
316.268
325.86
335.424
344.94
354.39
363.755
373.015
382.151
391.143
399.974
408.623
417.074
425.308
433.308
441.057
448.54
455.74
462.644
469.236
475.503
481.432
487.009
492.224
497.065
501.521
505.585
509.246
512.498
515.334
517.749
519.739
521.297
522.421
523.11
523.359
523.172
522.528
521.428
519.898
517.943
515.568
512.782
509.595
506.018
502.068
497.758
493.105
488.123
482.83
477.243
471.378
465.252
458.884
452.291
445.492
438.506
431.353
424.054
416.627
409.092
401.468
393.771
386.017
378.222
370.399
362.561
354.72
346.887
339.075
331.294
323.557
315.875
308.261
300.728
293.294
285.973
278.786
271.75
264.888
258.222
251.775
245.573
239.642
234.005
228.685
223.702
219.065
214.796
210.809
207.155
21.1441
7.87663
5.40242
4.58698
4.26645
4.15978
4.16648
4.24852
4.3831
4.55857
4.76793
5.00755
5.27521
5.5697
5.89003
6.23611
6.60765
7.00503
7.4291
7.88096
8.36197
8.8737
9.41788
9.99627
10.6095
11.2608
11.9531
12.6895
13.473
14.3069
15.195
16.1408
17.1483
18.2219
19.3662
20.5864
21.8877
23.2757
24.7562
26.3354
28.0196
29.8154
31.7294
33.7688
35.9405
38.252
40.7107
43.3242
46.1001
49.046
52.1696
55.4788
58.9811
62.6838
66.594
70.7182
75.0626
79.6331
84.4348
89.4724
94.7501
100.271
106.039
112.055
118.321
124.838
131.604
138.619
145.88
153.385
161.129
169.107
177.314
185.742
194.383
203.229
212.27
221.495
230.892
240.449
250.153
259.99
269.944
280.001
290.144
300.355
310.619
320.916
331.228
341.536
351.822
362.065
372.245
382.342
392.337
402.208
411.936
421.501
430.882
440.059
449.015
457.73
466.187
474.367
482.256
489.837
497.095
504.016
510.587
516.796
522.629
528.075
533.124
537.766
541.992
545.795
549.168
552.105
554.603
556.658
558.268
559.429
560.139
560.405
560.222
559.572
558.448
556.88
554.87
552.423
549.547
546.248
542.537
538.425
533.928
529.061
523.839
518.276
512.391
506.199
499.718
492.964
485.954
478.706
471.238
463.57
455.721
447.713
439.565
431.296
422.926
414.473
405.952
397.379
388.768
380.133
371.486
362.84
354.208
345.602
337.036
328.523
320.078
311.717
303.458
295.322
287.33
279.506
271.876
264.465
257.302
250.42
243.847
237.612
231.738
226.231
221.116
216.418
212.048
208.101
21.5596
7.98247
5.44144
4.60011
4.26603
4.15141
4.15236
4.22874
4.3599
4.53458
4.74525
4.98756
5.2591
5.55852
5.88509
6.23852
6.61799
7.02489
7.46049
7.92629
8.42409
8.95592
9.52411
10.1314
10.7803
11.4742
12.2166
13.0113
13.8625
14.7746
15.7525
16.8014
17.9264
19.1333
20.4282
21.8176
23.3084
24.9076
26.623
28.4621
30.433
32.5435
34.8018
37.2158
39.793
42.5435
45.4778
48.6047
51.932
55.468
59.2211
63.1998
67.4125
71.8659
76.5659
81.5183
86.7279
92.1985
97.9332
103.934
110.203
116.74
123.546
130.619
137.958
145.559
153.419
161.533
169.896
178.501
187.34
196.406
205.689
215.178
224.864
234.734
244.776
254.977
265.322
275.798
286.388
297.076
307.847
318.683
329.566
340.479
351.402
362.317
373.205
384.045
394.819
405.505
416.084
426.536
436.839
446.974
456.92
466.658
476.167
485.429
494.424
503.135
511.545
519.636
527.394
534.805
541.855
548.53
554.819
560.711
566.196
571.264
575.905
580.112
583.878
587.198
590.066
592.48
594.436
595.939
596.983
597.572
597.697
597.395
596.601
595.342
593.634
591.478
588.879
585.843
582.377
578.486
574.181
569.472
564.374
558.9
553.066
546.885
540.376
533.553
526.433
519.032
511.367
503.452
495.308
486.952
478.406
469.688
460.819
451.82
442.709
433.505
424.224
414.882
405.493
396.072
386.631
377.184
367.745
358.329
348.95
339.623
330.363
321.191
312.128
303.197
294.421
285.833
277.458
269.329
261.476
253.918
246.706
239.879
233.468
227.512
221.998
216.949
212.268
208.082
21.7643
8.00842
5.4377
4.58809
4.249
4.13115
4.13361
4.21498
4.35298
4.53566
4.75483
5.00734
5.29119
5.60532
5.94945
6.32393
6.72948
7.16736
7.63937
8.14775
8.69515
9.2846
9.91954
10.6039
11.3419
12.1381
12.9978
13.9264
14.9298
16.0146
17.1875
18.456
19.8276
21.3105
22.9132
24.6449
26.5149
28.5327
30.7082
33.0513
35.5719
38.2798
41.1846
44.2958
47.6228
51.175
54.9604
58.988
63.2667
67.8041
72.6072
77.6843
83.0469
88.6941
94.6277
100.851
107.364
114.164
121.25
128.617
136.261
144.177
152.361
160.805
169.503
178.447
187.628
197.038
206.666
216.501
226.534
236.752
247.143
257.695
268.394
279.226
290.178
301.234
312.379
323.598
334.875
346.192
357.535
368.885
380.226
391.538
402.805
414.008
425.127
436.145
447.042
457.8
468.399
478.82
489.043
499.049
508.821
518.338
527.583
536.538
545.186
553.509
561.491
569.12
576.38
583.261
589.749
595.833
601.505
606.755
611.578
615.963
619.902
623.391
626.427
629.005
631.12
632.774
633.962
634.703
634.981
634.814
634.191
633.091
631.555
629.573
627.151
624.293
621.003
617.288
613.152
608.602
603.645
598.289
592.549
586.435
579.962
573.142
565.993
558.528
550.764
542.714
534.394
525.819
517.006
507.974
498.741
489.329
479.757
470.045
460.213
450.278
440.259
430.17
420.027
409.843
399.632
389.409
379.189
368.988
358.823
348.71
338.666
328.713
318.878
309.183
299.645
290.302
281.194
272.358
263.847
255.709
247.963
240.65
233.812
227.439
221.555
216.187
211.231
206.857
21.7721
7.97006
5.40178
4.5559
4.22722
4.12354
4.14091
4.23765
4.39375
4.59817
4.84469
5.12982
5.45194
5.81073
6.20682
6.64163
7.11726
7.63637
8.20234
8.81917
9.49146
10.2244
11.0237
11.8959
12.8484
13.8888
15.0259
16.2686
17.6267
19.1109
20.7321
22.502
24.4326
26.5364
28.8259
31.3139
34.0132
36.9361
40.0943
43.4996
47.1632
51.0948
55.3034
59.7972
64.5849
69.6721
75.0637
80.7656
86.7806
93.1076
99.7438
106.684
113.917
121.444
129.262
137.382
145.791
154.47
163.405
172.583
181.992
191.622
201.458
211.491
221.706
232.094
242.64
253.333
264.162
275.112
286.173
297.331
308.575
319.891
331.267
342.689
354.145
365.621
377.104
388.579
400.033
411.452
422.821
434.126
445.352