/*--------------------------------*- C++ -*----------------------------------*\
| =========                 |                                                 |
| \\      /  F ield         | OpenFOAM: The Open Source CFD Toolbox           |
|  \\    /   O peration     | Version:  4.1                                   |
|   \\  /    A nd           | Web:      www.OpenFOAM.org                      |
|    \\/     M anipulation  |                                                 |
\*---------------------------------------------------------------------------*/
FoamFile
{
    version     2.0;
    format      ascii;
    class       volScalarField;
    location    "200";
    object      k;
}
// * * * * * * * * * * * * * * * * * * * * * * * * * * * * * * * * * * * * * //

dimensions      [0 2 -2 0 0 0 0];

internalField   nonuniform List<scalar> 
12225
(
0.580289
1.01383
1.31598
1.48985
1.57421
1.60333
1.60025
1.58728
1.56463
1.53891
1.51397
1.49035
1.46938
1.44981
1.43373
1.41768
1.40696
1.392
0.44218
0.502552
0.527846
0.540383
0.547605
0.551474
0.553415
0.555462
0.558577
0.562473
0.568153
0.574558
0.582678
0.59106
0.600724
0.610302
0.620166
0.631224
0.38749
0.419264
0.42632
0.423525
0.416701
0.406283
0.394575
0.383299
0.371987
0.362268
0.352778
0.345474
0.338167
0.333357
0.328078
0.325443
0.321856
0.320871
0.375843
0.384399
0.388022
0.387392
0.385555
0.381458
0.376088
0.370116
0.36373
0.357303
0.350879
0.344688
0.338696
0.333028
0.327725
0.322689
0.318146
0.313743
0.374005
0.3749
0.375831
0.375403
0.374369
0.372278
0.369562
0.366314
0.362843
0.359063
0.355314
0.351355
0.347641
0.343729
0.340221
0.33647
0.333289
0.329762
0.37372
0.372268
0.371496
0.370518
0.369354
0.367808
0.366007
0.363888
0.361667
0.359216
0.356797
0.354199
0.351737
0.349114
0.346716
0.344145
0.341881
0.339413
0.373786
0.371642
0.369946
0.36841
0.366966
0.365455
0.36391
0.362238
0.360541
0.358733
0.356944
0.355063
0.353252
0.351362
0.349582
0.347725
0.346018
0.344224
0.373822
0.37156
0.369556
0.367732
0.366064
0.364454
0.362905
0.361339
0.359799
0.358223
0.356683
0.355106
0.35358
0.352025
0.35054
0.349028
0.347605
0.346147
0.373831
0.371558
0.36945
0.367489
0.36568
0.363972
0.362364
0.360803
0.359303
0.35782
0.356387
0.354962
0.353583
0.352211
0.350891
0.349576
0.348322
0.347064
0.373831
0.371562
0.369424
0.367408
0.365519
0.363738
0.362065
0.360471
0.358958
0.357499
0.356104
0.354748
0.353447
0.352176
0.350956
0.349762
0.348619
0.347495
0.373829
0.371561
0.369417
0.367384
0.365465
0.363647
0.361932
0.360304
0.358763
0.357294
0.355896
0.354557
0.35328
0.352052
0.350876
0.349743
0.348657
0.347608
0.373828
0.371558
0.36941
0.367374
0.365444
0.363614
0.361879
0.360233
0.358672
0.357187
0.355776
0.354432
0.353152
0.351931
0.350765
0.349651
0.348585
0.347565
0.373827
0.371556
0.369404
0.367365
0.365431
0.363596
0.361855
0.360201
0.35863
0.357136
0.355715
0.354363
0.353075
0.351849
0.35068
0.349565
0.3485
0.347485
0.373826
0.371554
0.3694
0.367358
0.365422
0.363584
0.361838
0.36018
0.358605
0.357106
0.35568
0.354322
0.35303
0.351798
0.350624
0.349505
0.348437
0.347418
0.373826
0.371552
0.369397
0.367353
0.365414
0.363574
0.361826
0.360165
0.358586
0.357084
0.355655
0.354295
0.352998
0.351763
0.350586
0.349463
0.348392
0.34737
0.373825
0.371551
0.369395
0.367349
0.365409
0.363566
0.361817
0.360154
0.358572
0.357068
0.355637
0.354274
0.352975
0.351738
0.350558
0.349433
0.348359
0.347335
0.373825
0.371551
0.369393
0.367347
0.365405
0.363562
0.36181
0.360146
0.358563
0.357057
0.355624
0.354259
0.352959
0.351719
0.350538
0.349411
0.348336
0.34731
0.373825
0.371551
0.369393
0.367346
0.365404
0.36356
0.361807
0.360142
0.358558
0.357052
0.355617
0.354252
0.35295
0.35171
0.350527
0.3494
0.348324
0.347297
0.373825
0.371551
0.369393
0.367347
0.365404
0.36356
0.361808
0.360142
0.358559
0.357052
0.355617
0.354251
0.35295
0.351709
0.350526
0.349398
0.348322
0.347295
0.373825
0.371551
0.369394
0.367348
0.365406
0.363563
0.361811
0.360146
0.358562
0.357056
0.355622
0.354256
0.352955
0.351715
0.350533
0.349405
0.34833
0.347303
0.373826
0.371552
0.369396
0.367351
0.36541
0.363567
0.361816
0.360152
0.35857
0.357066
0.355633
0.35427
0.352971
0.351733
0.350553
0.349427
0.348353
0.347328
0.373826
0.371553
0.369398
0.367354
0.365415
0.363575
0.361828
0.36017
0.358594
0.357096
0.355671
0.354314
0.353021
0.351789
0.350613
0.34949
0.348418
0.347392
0.373826
0.371555
0.3694
0.367362
0.365432
0.363608
0.361882
0.360248
0.358696
0.35722
0.355814
0.354471
0.353187
0.351957
0.350777
0.349645
0.348556
0.347511
0.373827
0.371553
0.369412
0.36742
0.365552
0.363806
0.362156
0.360592
0.359091
0.35765
0.356255
0.354904
0.35359
0.352316
0.351074
0.349868
0.348693
0.347554
0.373823
0.371558
0.36958
0.367833
0.366203
0.364681
0.363181
0.361704
0.360212
0.358724
0.357223
0.355731
0.354238
0.352765
0.351296
0.34986
0.348438
0.347055
0.373799
0.371902
0.370807
0.369763
0.368638
0.367449
0.365996
0.364406
0.36263
0.360789
0.358841
0.35688
0.354866
0.35287
0.350859
0.348896
0.346931
0.345032
0.374232
0.374676
0.376473
0.376452
0.375879
0.374649
0.372431
0.369953
0.367104
0.364195
0.361081
0.358005
0.35482
0.351728
0.348594
0.345565
0.342544
0.339651
0.378895
0.390347
0.398465
0.398207
0.396218
0.392664
0.387951
0.383147
0.377879
0.372747
0.367379
0.362234
0.357064
0.352123
0.347359
0.342771
0.338552
0.334383
0.401211
0.430069
0.440451
0.444211
0.447066
0.450285
0.453166
0.455996
0.458394
0.460666
0.462695
0.464554
0.466516
0.468156
0.470312
0.47192
0.474568
0.476139
0.464848
0.644136
0.800194
0.91606
1.0169
1.10105
1.16842
1.22027
1.25834
1.28499
1.30214
1.31207
1.31607
1.31516
1.31264
1.30714
1.30006
1.29183
0.00445571
0.00729497
0.0102687
0.0128395
0.0149143
0.0165422
0.0179087
0.0191543
0.020289
0.0213724
0.022464
0.0236262
0.0249433
0.0265444
0.0284493
0.0305698
0.0328486
0.0352797
0.0378697
0.0406387
0.0435977
0.0467632
0.0501393
0.0537365
0.0575551
0.061608
0.0659029
0.070392
0.0750634
0.0799113
0.0849243
0.0901023
0.0954363
0.10093
0.106576
0.11238
0.118337
0.124463
0.130774
0.137312
0.144121
0.151216
0.158425
0.165821
0.173375
0.181106
0.189004
0.197083
0.205333
0.213768
0.222377
0.231175
0.240149
0.249314
0.258658
0.268194
0.277909
0.287815
0.297899
0.308174
0.318622
0.329257
0.340061
0.351047
0.362195
0.373518
0.384994
0.396636
0.408422
0.420362
0.432434
0.444647
0.456977
0.469433
0.481989
0.494655
0.507402
0.520241
0.53314
0.54611
0.559119
0.572175
0.585245
0.598335
0.611412
0.62448
0.637503
0.650482
0.663383
0.676199
0.688898
0.701453
0.713835
0.726016
0.737966
0.749665
0.761117
0.772384
0.783498
0.794323
0.804897
0.815192
0.825192
0.834879
0.844233
0.853235
0.861865
0.870105
0.877935
0.885336
0.89229
0.898778
0.904784
0.910291
0.915284
0.919746
0.923669
0.927037
0.929846
0.932085
0.933757
0.934851
0.93534
0.93523
0.934506
0.933069
0.931188
0.928896
0.925931
0.922404
0.91835
0.913779
0.90872
0.903192
0.897222
0.890832
0.884054
0.876914
0.869434
0.861665
0.85364
0.845391
0.836948
0.828359
0.819654
0.810888
0.802094
0.793343
0.784688
0.77618
0.767845
0.7597
0.751781
0.744135
0.736781
0.729749
0.723115
0.716894
0.711098
0.705761
0.700778
0.696227
0.69214
0.688574
0.685514
0.682885
0.68067
0.678867
0.677403
0.676249
0.675559
0.677735
0.681154
0.68493
0.688877
0.692979
0.696934
0.700005
0.700266
0.682815
0.0110796
0.0181546
0.0249576
0.0301916
0.0345332
0.038318
0.0417283
0.0449457
0.0481563
0.0514764
0.0549701
0.0586669
0.0625753
0.0666897
0.0709996
0.0754992
0.0801862
0.0850713
0.0901733
0.0955163
0.101122
0.107011
0.113199
0.119697
0.126513
0.133653
0.141118
0.148909
0.157023
0.165458
0.174206
0.183271
0.192654
0.20236
0.21239
0.222753
0.233442
0.244428
0.255712
0.267298
0.279183
0.291363
0.303829
0.316594
0.329659
0.343035
0.356722
0.370729
0.385058
0.399716
0.414706
0.430035
0.445703
0.461719
0.478083
0.4948
0.511871
0.529302
0.547089
0.565239
0.583747
0.602617
0.621845
0.641433
0.661374
0.68167
0.702314
0.723304
0.744633
0.766297
0.788286
0.810595
0.833213
0.856134
0.879343
0.902833
0.926588
0.950598
0.974847
0.999323
1.02401
1.04888
1.07393
1.09914
1.12447
1.14992
1.17546
1.20105
1.22668
1.25232
1.27794
1.30348
1.32892
1.3542
1.37928
1.40408
1.42854
1.45257
1.47617
1.49947
1.52245
1.54506
1.56727
1.58906
1.61036
1.63116
1.65139
1.67103
1.69004
1.70836
1.72595
1.74278
1.7588
1.77396
1.78824
1.80158
1.81396
1.82533
1.83568
1.84496
1.85315
1.86024
1.86621
1.87106
1.87472
1.87688
1.8779
1.87821
1.87735
1.87519
1.8719
1.86753
1.8621
1.85565
1.84824
1.8399
1.83068
1.82066
1.80989
1.79842
1.78633
1.77367
1.76052
1.74696
1.73306
1.71891
1.70461
1.69026
1.67597
1.66182
1.6479
1.63429
1.62106
1.60829
1.59605
1.58442
1.57345
1.56323
1.55381
1.54525
1.53757
1.53083
1.52502
1.52018
1.51635
1.5135
1.51161
1.51063
1.51051
1.51115
1.51244
1.51472
1.51784
1.52138
1.52478
1.52779
1.53031
1.53162
1.52859
1.51025
0.0171743
0.0294308
0.0386441
0.0455599
0.0513864
0.0566403
0.0616042
0.06647
0.0713769
0.0764198
0.0816545
0.0871084
0.0927897
0.0986981
0.104831
0.111189
0.117779
0.124616
0.131721
0.139117
0.146829
0.154877
0.16328
0.172054
0.181209
0.190755
0.200698
0.211041
0.221785
0.232928
0.244466
0.2564
0.268729
0.281451
0.294562
0.30806
0.32194
0.336198
0.350833
0.365845
0.381232
0.396995
0.413135
0.42966
0.44657
0.463873
0.481573
0.499674
0.518182
0.537101
0.556435
0.576189
0.596365
0.616967
0.637999
0.659462
0.681359
0.703691
0.726457
0.74966
0.773296
0.797365
0.821864
0.846791
0.87214
0.897907
0.924087
0.950674
0.977658
1.00503
1.03279
1.06091
1.0894
1.11823
1.14739
1.17687
1.20665
1.23672
1.26706
1.29764
1.32846
1.35948
1.39069
1.42207
1.45358
1.4852
1.5169
1.54866
1.58043
1.6122
1.64393
1.67557
1.70709
1.73845
1.76961
1.80053
1.83117
1.86152
1.89152
1.92118
1.95044
1.97925
2.00758
2.03537
2.06258
2.08916
2.11504
2.14019
2.16455
2.18806
2.21067
2.23232
2.25297
2.27255
2.29102
2.30833
2.32442
2.33926
2.35279
2.36499
2.37581
2.38523
2.39323
2.39978
2.40488
2.40838
2.41022
2.41086
2.4102
2.40797
2.4043
2.39925
2.39286
2.38517
2.37624
2.36614
2.35492
2.34265
2.32942
2.31529
2.30035
2.28468
2.26837
2.25151
2.23421
2.21657
2.1987
2.18073
2.16277
2.14495
2.12735
2.11009
2.09326
2.07695
2.06125
2.04625
2.03203
2.01866
2.00623
1.99478
1.98438
1.97507
1.96686
1.95977
1.95383
1.94902
1.9453
1.94263
1.94092
1.94011
1.94
1.94039
1.94137
1.9428
1.94399
1.94461
1.94468
1.94414
1.94054
1.92807
0.0220326
0.0402668
0.0518441
0.060307
0.0673824
0.0737605
0.0798065
0.0857477
0.0917375
0.0978784
0.104233
0.110835
0.117698
0.124825
0.132217
0.139879
0.147821
0.156059
0.164615
0.173512
0.182773
0.192422
0.202475
0.21295
0.223857
0.235205
0.246995
0.259229
0.271904
0.285022
0.298586
0.312593
0.327042
0.341931
0.357257
0.373017
0.389208
0.405829
0.42288
0.44036
0.458269
0.476612
0.49539
0.514608
0.534269
0.554381
0.574947
0.595973
0.617464
0.639426
0.661862
0.684778
0.708176
0.732061
0.756436
0.781303
0.806665
0.832523
0.858877
0.885729
0.913075
0.940916
0.969247
0.998067
1.02737
1.05715
1.0874
1.11812
1.14929
1.18091
1.21296
1.24544
1.27832
1.31161
1.34527
1.3793
1.41367
1.44837
1.48337
1.51867
1.55422
1.59001
1.62602
1.66221
1.69855
1.73503
1.7716
1.80824
1.8449
1.88157
1.91819
1.95474
1.99117
2.02745
2.06354
2.09939
2.13497
2.17023
2.20514
2.23965
2.27371
2.30727
2.34027
2.37266
2.40439
2.43539
2.46561
2.495
2.52347
2.55099
2.57748
2.60288
2.62714
2.65018
2.67195
2.69239
2.71145
2.72907
2.7452
2.75979
2.7728
2.78419
2.79394
2.80202
2.80842
2.81311
2.81591
2.81702
2.8167
2.81462
2.81087
2.80551
2.79857
2.79012
2.78021
2.7689
2.75629
2.74243
2.72741
2.71133
2.69427
2.67632
2.65759
2.63818
2.61822
2.59781
2.57708
2.55617
2.53521
2.51432
2.49361
2.47321
2.45322
2.43375
2.41489
2.39675
2.37941
2.36295
2.34746
2.333
2.31964
2.30741
2.29635
2.28647
2.27778
2.27028
2.2639
2.25858
2.25422
2.25072
2.24788
2.24555
2.24369
2.24211
2.24038
2.23835
2.23599
2.23346
2.22907
2.21926
0.025858
0.0502151
0.064216
0.0742337
0.0825091
0.0899014
0.096857
0.103647
0.110449
0.117386
0.124535
0.131945
0.139642
0.147639
0.155945
0.164569
0.173522
0.182821
0.192484
0.202534
0.212991
0.223874
0.235199
0.24698
0.259226
0.271943
0.285136
0.298807
0.312957
0.327589
0.342701
0.358292
0.374361
0.390906
0.407926
0.425419
0.443385
0.461823
0.480734
0.500118
0.519979
0.540319
0.561142
0.582454
0.604261
0.62657
0.649386
0.672715
0.696563
0.720937
0.745842
0.771283
0.797264
0.823792
0.850869
0.878499
0.906684
0.935428
0.964731
0.994594
1.02502
1.056
1.08753
1.11962
1.15226
1.18545
1.21916
1.25341
1.28818
1.32346
1.35924
1.3955
1.43223
1.46942
1.50704
1.54509
1.58353
1.62236
1.66154
1.70105
1.74086
1.78095
1.8213
1.86186
1.90261
1.94352
1.98455
2.02566
2.06682
2.10799
2.14914
2.19022
2.23119
2.272
2.31262
2.353
2.39309
2.43283
2.47219
2.5111
2.54952
2.58739
2.62465
2.66123
2.69708
2.73213
2.76633
2.7996
2.83187
2.86309
2.89318
2.92207
2.9497
2.97599
3.00088
3.02431
3.04621
3.06651
3.08517
3.10213
3.11733
3.13074
3.14231
3.15202
3.15985
3.16579
3.16974
3.1716
3.17182
3.17012
3.16654
3.16112
3.15392
3.14499
3.13439
3.1222
3.10849
3.09334
3.07684
3.0591
3.04019
3.02024
2.99935
2.97764
2.95522
2.93223
2.90881
2.88509
2.86122
2.83731
2.81351
2.78994
2.76671
2.74395
2.72175
2.70023
2.67948
2.65959
2.64064
2.62271
2.60586
2.59014
2.57557
2.56219
2.54999
2.53897
2.52907
2.52022
2.51234
2.5053
2.49894
2.49313
2.48778
2.4827
2.47767
2.4726
2.46753
2.46272
2.45693
2.44769
0.0289668
0.0591444
0.0754453
0.0869611
0.0963825
0.10472
0.112492
0.12001
0.12748
0.135045
0.142803
0.150819
0.159136
0.167778
0.176766
0.186113
0.195833
0.205943
0.216459
0.227399
0.238781
0.250619
0.262927
0.275718
0.288998
0.302774
0.317051
0.331832
0.347119
0.362913
0.379215
0.396025
0.413342
0.431167
0.449499
0.468339
0.487688
0.507548
0.527921
0.548811
0.570221
0.592158
0.614625
0.637632
0.661183
0.685286
0.709949
0.735179
0.760982
0.787367
0.81434
0.841908
0.870077
0.898854
0.928243
0.958249
0.988876
1.02013
1.05201
1.08452
1.11765
1.15142
1.18582
1.22084
1.25649
1.29275
1.32962
1.3671
1.40517
1.44382
1.48305
1.52283
1.56315
1.604
1.64535
1.68719
1.72949
1.77223
1.81539
1.85893
1.90283
1.94705
1.99157
2.03636
2.08136
2.12656
2.17191
2.21737
2.2629
2.30846
2.35401
2.39949
2.44487
2.49009
2.53511
2.57986
2.62431
2.66838
2.71203
2.7552
2.79784
2.83987
2.88123
2.92187
2.96171
3.0007
3.03875
3.07579
3.11177
3.1466
3.18021
3.21253
3.24348
3.27299
3.30098
3.32739
3.35215
3.37518
3.39642
3.4158
3.43329
3.44881
3.46232
3.4738
3.4832
3.49053
3.49574
3.49865
3.49956
3.49844
3.49523
3.48997
3.48271
3.4735
3.46241
3.44951
3.43488
3.41861
3.4008
3.38153
3.36092
3.33907
3.3161
3.29214
3.26732
3.24176
3.21562
3.18904
3.16216
3.13512
3.10807
3.08113
3.05443
3.02809
3.00223
2.97696
2.95239
2.9286
2.90569
2.88373
2.8628
2.84293
2.82418
2.80657
2.79011
2.77479
2.76058
2.74743
2.73525
2.72395
2.71339
2.70346
2.69408
2.6851
2.67642
2.66801
2.65997
2.65261
2.64489
2.63498
0.0331493
0.0671896
0.0854286
0.0982637
0.108718
0.117915
0.126426
0.134594
0.142647
0.150746
0.159006
0.167509
0.176312
0.185454
0.194964
0.204862
0.215166
0.225893
0.237057
0.248674
0.260759
0.273323
0.286378
0.299935
0.314
0.328579
0.343679
0.359301
0.37545
0.392128
0.409336
0.427076
0.445351
0.464161
0.48351
0.503399
0.523832
0.544814
0.566348
0.588441
0.611098
0.634326
0.658134
0.682528
0.707518
0.733112
0.759319
0.786148
0.813608
0.841708
0.870457
0.899863
0.929934
0.960679
0.992104
1.02422
1.05702
1.09052
1.12473
1.15964
1.19526
1.23159
1.26863
1.30637
1.34482
1.38397
1.42382
1.46435
1.50556
1.54744
1.58997
1.63313
1.67692
1.72132
1.76629
1.81183
1.8579
1.90448
1.95153
1.99904
2.04696
2.09527
2.14392
2.19288
2.24211
2.29156
2.3412
2.39098
2.44085
2.49076
2.54068
2.59054
2.64028
2.68987
2.73923
2.78832
2.83707
2.88541
2.9333
2.98067
3.02745
3.07359
3.119
3.16363
3.20741
3.25026
3.29211
3.33288
3.37251
3.41091
3.448
3.48371
3.51797
3.55068
3.58178
3.61118
3.63881
3.66459
3.68846
3.71034
3.73017
3.74789
3.76344
3.77679
3.7879
3.79674
3.8033
3.80744
3.80923
3.80884
3.80615
3.8012
3.79403
3.78469
3.77325
3.75978
3.74436
3.72709
3.70805
3.68734
3.66509
3.64139
3.61638
3.59017
3.56291
3.53474
3.50581
3.47625
3.44623
3.4159
3.38538
3.35483
3.32438
3.29416
3.26429
3.23489
3.20606
3.17791
3.15053
3.124
3.0984
3.07378
3.0502
3.0277
3.0063
2.986
2.96681
2.94867
2.93154
2.91535
2.90002
2.88545
2.87159
2.85836
2.84572
2.83372
2.82247
2.8123
2.80226
2.79099
0.0380036
0.0742296
0.0940337
0.107983
0.119334
0.129295
0.138471
0.147226
0.155803
0.164377
0.173076
0.181993
0.191197
0.20074
0.210658
0.220979
0.231724
0.242912
0.254558
0.266675
0.279277
0.292374
0.305977
0.320094
0.334732
0.349899
0.365599
0.381838
0.39862
0.415948
0.433827
0.45226
0.471252
0.490806
0.510927
0.531621
0.552892
0.574748
0.597196
0.620243
0.643897
0.668168
0.693066
0.718601
0.744783
0.771623
0.799132
0.827321
0.856202
0.885785
0.916082
0.947103
0.978859
1.01136
1.04462
1.07863
1.11343
1.14899
1.18535
1.22249
1.26043
1.29917
1.3387
1.37903
1.42016
1.46208
1.50479
1.54828
1.59254
1.63756
1.68332
1.72981
1.77701
1.8249
1.87346
1.92266
1.97247
2.02286
2.07381
2.12527
2.17721
2.22959
2.28238
2.33552
2.38897
2.44268
2.49661
2.55071
2.60491
2.65918
2.71345
2.76767
2.82177
2.8757
2.92938
2.98276
3.03577
3.08835
3.14043
3.19194
3.24282
3.29299
3.34239
3.39095
3.43859
3.48523
3.5308
3.57522
3.61842
3.66031
3.70082
3.73986
3.77736
3.81322
3.84736
3.87972
3.91019
3.93871
3.9652
3.98958
4.01177
4.03172
4.04937
4.06465
4.07753
4.08796
4.09594
4.10139
4.10422
4.10467
4.10263
4.09812
4.09115
4.08179
4.07011
4.05617
4.04006
4.02187
4.00169
3.97961
3.95576
3.93025
3.90321
3.87475
3.84503
3.81419
3.78238
3.74975
3.71646
3.68266
3.6485
3.61412
3.57967
3.54527
3.51107
3.47717
3.4437
3.41076
3.37845
3.34686
3.31609
3.28619
3.25723
3.22928
3.20236
3.17651
3.15175
3.12807
3.10546
3.08388
3.06329
3.04366
3.02496
3.00718
2.99034
2.97452
2.95988
2.9467
2.93408
2.92111
0.0424481
0.0800622
0.101144
0.11603
0.128151
0.13878
0.148546
0.15783
0.166883
0.175887
0.184977
0.194256
0.203802
0.213673
0.223915
0.234559
0.245632
0.257155
0.269144
0.281613
0.294575
0.308041
0.32202
0.33652
0.351552
0.36712
0.383233
0.399895
0.417114
0.434895
0.453244
0.472168
0.491673
0.511765
0.532453
0.553743
0.575645
0.598166
0.621317
0.645109
0.669552
0.694657
0.720439
0.746908
0.774079
0.801964
0.830577
0.859933
0.890044
0.920926
0.952591
0.985053
1.01833
1.05242
1.08735
1.12313
1.15976
1.19726
1.23564
1.2749
1.31505
1.35609
1.39803
1.44087
1.4846
1.52922
1.57473
1.62113
1.66839
1.71651
1.76548
1.81527
1.86586
1.91724
1.96937
2.02223
2.07579
2.13001
2.18485
2.24028
2.29625
2.35273
2.40965
2.46699
2.52467
2.58265
2.64088
2.69929
2.75783
2.81643
2.87504
2.93359
2.99201
3.05023
3.10819
3.1658
3.22302
3.27975
3.33594
3.3915
3.44638
3.50049
3.55376
3.60612
3.65748
3.70778
3.75694
3.80487
3.8515
3.89675
3.94053
3.98276
4.02335
4.06223
4.0993
4.13449
4.1677
4.19886
4.22789
4.25469
4.2792
4.30134
4.32105
4.33826
4.35291
4.36497
4.37439
4.38115
4.38515
4.38652
4.3852
4.38121
4.37454
4.36526
4.35342
4.33911
4.32239
4.30337
4.28211
4.25874
4.23335
4.20607
4.17702
4.14633
4.11414
4.08061
4.04588
4.0101
3.97345
3.93606
3.8981
3.85972
3.82106
3.78226
3.74345
3.70477
3.66634
3.62827
3.59068
3.55365
3.51729
3.48168
3.44691
3.41304
3.38016
3.3483
3.31752
3.28786
3.25933
3.23196
3.20575
3.18072
3.1569
3.13433
3.11307
3.09327
3.07507
3.05872
3.04336
3.02824
0.0463532
0.0846868
0.106774
0.122425
0.135188
0.146385
0.156666
0.166416
0.175893
0.185282
0.194721
0.204317
0.214154
0.224295
0.23479
0.245677
0.256985
0.268739
0.280956
0.293653
0.306842
0.320535
0.334744
0.349478
0.364746
0.380557
0.396919
0.41384
0.431329
0.449393
0.468042
0.487283
0.507127
0.527584
0.548662
0.570373
0.592728
0.615739
0.639418
0.663779
0.688835
0.714603
0.741097
0.768333
0.796327
0.825096
0.854657
0.885026
0.916222
0.948259
0.981156
1.01493
1.0496
1.08517
1.12167
1.1591
1.19748
1.23683
1.27715
1.31846
1.36076
1.40405
1.44834
1.49364
1.53994
1.58725
1.63555
1.68483
1.73509
1.78632
1.83849
1.89159
1.94559
2.00047
2.0562
2.11274
2.17006
2.22812
2.28688
2.34629
2.40631
2.46689
2.52796
2.58949
2.6514
2.71363
2.77613
2.83883
2.90166
2.96455
3.02744
3.09025
3.15291
3.21534
3.27746
3.3392
3.40049
3.46125
3.52139
3.58085
3.63955
3.69742
3.75437
3.81033
3.86522
3.91896
3.97148
4.0227
4.07252
4.12089
4.1677
4.21288
4.25634
4.29801
4.33779
4.3756
4.41135
4.44496
4.47634
4.50541
4.53209
4.5563
4.57796
4.59701
4.61338
4.62701
4.63787
4.64591
4.65109
4.65342
4.65289
4.64949
4.64318
4.63404
4.62213
4.60752
4.59028
4.5705
4.54826
4.52367
4.49682
4.46784
4.43684
4.40395
4.36933
4.33311
4.29545
4.25651
4.21644
4.17541
4.13357
4.09107
4.04808
4.00472
3.96115
3.91749
3.87389
3.83045
3.7873
3.74455
3.70232
3.6607
3.61979
3.57969
3.5405
3.5023
3.46517
3.4292
3.39445
3.36099
3.32889
3.29821
3.26904
3.24149
3.21567
3.19173
3.16984
3.15023
3.13205
3.1148
0.0496859
0.0881709
0.111006
0.127258
0.140536
0.1522
0.162911
0.173058
0.1829
0.192621
0.202362
0.212229
0.222307
0.232664
0.243351
0.254411
0.265876
0.277772
0.29012
0.30294
0.316244
0.330048
0.344362
0.3592
0.374573
0.390491
0.406965
0.424004
0.441621
0.459826
0.47863
0.498045
0.518084
0.538759
0.560084
0.582071
0.604736
0.628093
0.652157
0.676947
0.70248
0.728774
0.755849
0.783723
0.812418
0.841953
0.872348
0.903625
0.935803
0.968903
1.00295
1.03795
1.07394
1.11093
1.14893
1.18797
1.22807
1.26923
1.31147
1.3548
1.39924
1.44478
1.49143
1.53921
1.58809
1.63809
1.6892
1.74141
1.7947
1.84907
1.90448
1.96092
2.01836
2.07678
2.13613
2.19638
2.25749
2.31941
2.38209
2.4455
2.50956
2.57422
2.63942
2.7051
2.77119
2.83762
2.90432
2.97123
3.03825
3.10532
3.17237
3.2393
3.30604
3.3725
3.43861
3.50428
3.56944
3.63398
3.69785
3.76095
3.82321
3.88455
3.94489
4.00415
4.06225
4.11912
4.17467
4.22882
4.28151
4.33265
4.38215
4.42994
4.47593
4.52005
4.56221
4.60232
4.6403
4.67606
4.70953
4.74061
4.76922
4.79528
4.8187
4.83943
4.85737
4.87247
4.88468
4.89395
4.90024
4.90354
4.9038
4.90106
4.89515
4.8862
4.87428
4.85945
4.84178
4.82134
4.79822
4.7725
4.74429
4.71369
4.68083
4.64584
4.60885
4.57001
4.52947
4.4874
4.44394
4.39927
4.35354
4.30691
4.25953
4.21157
4.16315
4.11442
4.06553
4.0166
3.96776
3.91914
3.87085
3.82303
3.7758
3.72927
3.68356
3.63881
3.59514
3.55265
3.51148
3.47174
3.43355
3.39706
3.3624
3.32972
3.29921
3.27103
3.24537
3.22243
3.20141
3.18204
0.0524412
0.0906058
0.113956
0.130654
0.144324
0.156351
0.167403
0.17787
0.188009
0.198003
0.207988
0.218073
0.228341
0.238858
0.249681
0.260851
0.272404
0.284368
0.296767
0.309621
0.322947
0.336762
0.351081
0.365919
0.381288
0.397201
0.413674
0.430718
0.448348
0.466578
0.485423
0.504898
0.525019
0.545801
0.56726
0.589415
0.612282
0.635881
0.66023
0.68535
0.711265
0.737996
0.765568
0.794003
0.823327
0.853563
0.884736
0.91687
0.94999
0.98412
1.01928
1.05551
1.09281
1.13121
1.17074
1.21141
1.25324
1.29625
1.34045
1.38586
1.43249
1.48034
1.52942
1.57973
1.63127
1.68404
1.73804
1.79324
1.84963
1.9072
1.96592
2.02576
2.08669
2.14869
2.21169
2.27568
2.34058
2.40636
2.47296
2.54032
2.60838
2.67707
2.74632
2.81607
2.88622
2.95672
3.02748
3.09842
3.16945
3.2405
3.31147
3.38229
3.45285
3.52308
3.59288
3.66216
3.73085
3.79885
3.86607
3.93244
3.99787
4.06228
4.12559
4.18772
4.24859
4.30813
4.36626
4.4229
4.47798
4.53143
4.58315
4.63309
4.68116
4.72727
4.77136
4.81334
4.85314
4.89066
4.92583
4.95856
4.98876
5.01637
5.04128
5.06343
5.08273
5.09912
5.11253
5.12292
5.13023
5.13444
5.13548
5.13342
5.12795
5.11923
5.10736
5.09239
5.07438
5.05338
5.02949
5.00277
4.97332
4.94124
4.90665
4.86967
4.83043
4.78909
4.74578
4.70067
4.65392
4.60569
4.55614
4.50544
4.45374
4.40119
4.34795
4.29417
4.23998
4.18554
4.13099
4.07645
4.02208
3.968
3.91437
3.86134
3.80905
3.75766
3.70734
3.65826
3.61057
3.56446
3.5201
3.47771
3.43747
3.3996
3.36433
3.33185
3.30238
3.27609
3.25224
3.23084
0.0546365
0.0921029
0.115752
0.132752
0.146697
0.158983
0.170283
0.180986
0.191346
0.201543
0.211712
0.221955
0.232355
0.242978
0.253879
0.265103
0.276685
0.288655
0.30104
0.313859
0.327133
0.34088
0.35512
0.369871
0.385149
0.400972
0.417357
0.434321
0.451882
0.470057
0.488865
0.508325
0.528456
0.549278
0.57081
0.593073
0.616088
0.639874
0.664456
0.689862
0.716121
0.743262
0.771311
0.800297
0.830249
0.861196
0.893166
0.926188
0.960291
0.995503
1.03185
1.06936
1.10806
1.14798
1.18913
1.23154
1.27523
1.32021
1.3665
1.41413
1.46308
1.51338
1.56503
1.61802
1.67236
1.72804
1.78504
1.84335
1.90296
1.96383
2.02594
2.08926
2.15374
2.21935
2.28603
2.35375
2.42243
2.49203
2.56247
2.6337
2.70564
2.77821
2.85135
2.92496
2.99897
3.0733
3.14784
3.22252
3.29725
3.37193
3.44647
3.52078
3.59476
3.66832
3.74136
3.8138
3.88554
3.95648
4.02655
4.09566
4.16371
4.23064
4.29635
4.36078
4.42384
4.48546
4.54557
4.60411
4.66099
4.71614
4.7695
4.82099
4.87055
4.9181
4.96356
5.00687
5.04795
5.08672
5.12311
5.15704
5.18841
5.21716
5.24321
5.26646
5.28684
5.30427
5.31868
5.33002
5.33823
5.34325
5.34506
5.34363
5.33867
5.3302
5.31844
5.30341
5.28516
5.26373
5.23919
5.21161
5.18108
5.14769
5.11153
5.07274
5.03144
4.98776
4.94186
4.89388
4.844
4.79238
4.73916
4.68453
4.62864
4.57164
4.51371
4.45498
4.39561
4.33576
4.27557
4.2152
4.1548
4.09454
4.03458
3.97508
3.91625
3.85827
3.80133
3.74567
3.69148
3.63901
3.5885
3.5402
3.49439
3.45132
3.41128
3.37449
3.34109
3.31137
3.28469
3.26135
0.0562852
0.0927379
0.116514
0.133691
0.147804
0.160248
0.171695
0.182544
0.193045
0.203372
0.213654
0.223993
0.234467
0.245141
0.256067
0.26729
0.278848
0.290774
0.303098
0.315828
0.32899
0.342611
0.356713
0.37132
0.386453
0.402134
0.418383
0.435222
0.452674
0.470761
0.489506
0.508931
0.52906
0.549915
0.57152
0.5939
0.617078
0.641075
0.665908
0.691632
0.718283
0.745893
0.774494
0.80412
0.834805
0.866581
0.899481
0.933538
0.968785
1.00525
1.04298
1.08198
1.12229
1.16395
1.20696
1.25135
1.29714
1.34435
1.39299
1.44308
1.49462
1.54761
1.60206
1.65797
1.71532
1.7741
1.8343
1.89589
1.95885
2.02315
2.08874
2.15559
2.22365
2.29288
2.36321
2.43458
2.50694
2.58022
2.65434
2.72923
2.8048
2.88098
2.95769
3.03482
3.11231
3.19004
3.26793
3.34587
3.42379
3.50157
3.57912
3.65634
3.73313
3.8094
3.88504
3.95997
4.03408
4.10728
4.17948
4.2506
4.32056
4.38926
4.45664
4.52261
4.58711
4.65007
4.71142
4.77109
4.82903
4.88516
4.93942
4.99176
5.0421
5.09039
5.13657
5.18056
5.2223
5.26173
5.29877
5.33334
5.36539
5.39482
5.42156
5.44553
5.46664
5.48482
5.49999
5.51207
5.521
5.52673
5.52924
5.52841
5.524
5.51582
5.50424
5.48924
5.47086
5.44914
5.42413
5.39587
5.36445
5.32995
5.29245
5.25207
5.20892
5.16315
5.11488
5.06429
5.01151
4.95672
4.90008
4.84175
4.78189
4.72067
4.65825
4.59479
4.53044
4.46537
4.39975
4.33374
4.2675
4.20122
4.13509
4.06931
4.00408
3.93965
3.87625
3.81414
3.75359
3.69488
3.6383
3.58411
3.53261
3.48423
3.43929
3.39811
3.3609
3.32805
3.29881
3.27378
0.05741
0.0926189
0.116349
0.133569
0.147735
0.160236
0.171746
0.182665
0.193233
0.20362
0.21395
0.224319
0.234805
0.245469
0.256364
0.267535
0.27902
0.290856
0.303079
0.315694
0.328732
0.342221
0.356189
0.37066
0.385661
0.401216
0.417352
0.434095
0.451471
0.469506
0.488228
0.507664
0.527844
0.548795
0.570544
0.593123
0.616563
0.640901
0.666132
0.692342
0.719569
0.747852
0.777229
0.807742
0.83943
0.872326
0.906466
0.941886
0.978623
1.01672
1.0562
1.09709
1.13943
1.18324
1.22854
1.27534
1.32367
1.37353
1.42494
1.4779
1.53241
1.58847
1.64607
1.70521
1.76586
1.82801
1.89162
1.95667
2.02311
2.09092
2.16004
2.23042
2.30201
2.37474
2.44856
2.52339
2.59916
2.6758
2.75323
2.83137
2.91012
2.9894
3.06912
3.14919
3.2295
3.30997
3.39049
3.47097
3.5513
3.63138
3.71111
3.7904
3.86914
3.94722
4.02456
4.10105
4.17661
4.25113
4.32453
4.39673
4.46763
4.53717
4.60526
4.67185
4.73686
4.80023
4.86189
4.92181
4.97991
5.03615
5.09047
5.14281
5.19313
5.24138
5.28749
5.33143
5.37313
5.41253
5.44958
5.48421
5.51634
5.54593
5.57289
5.59715
5.61861
5.6372
5.65283
5.66542
5.67489
5.6812
5.68437
5.68408
5.68026
5.67245
5.66112
5.64629
5.62793
5.60609
5.5808
5.55209
5.52002
5.48466
5.44609
5.4044
5.35971
5.31213
5.26181
5.20889
5.15353
5.09589
5.03613
4.97442
4.91091
4.84577
4.77917
4.71128
4.64225
4.57226
4.50149
4.43012
4.35833
4.28632
4.21429
4.14248
4.07113
4.00051
3.93088
3.86246
3.79559
3.73064
3.66801
3.60811
3.55146
3.49829
3.44897
3.40385
3.36322
3.32728
3.29552
3.26896
0.0581797
0.0920795
0.115595
0.132753
0.146885
0.159365
0.170861
0.181758
0.192302
0.202664
0.212965
0.223301
0.233743
0.244353
0.255182
0.266272
0.277662
0.289384
0.301467
0.313931
0.326812
0.340142
0.353956
0.368284
0.383159
0.398613
0.414678
0.431389
0.448778
0.466878
0.485726
0.505363
0.525827
0.54714
0.569329
0.592431
0.616481
0.641496
0.667517
0.694632
0.722893
0.752344
0.783026
0.814977
0.848233
0.882835
0.918821
0.956231
0.995105
1.03549
1.07742
1.12092
1.166
1.21268
1.26097
1.31088
1.36241
1.41557
1.47035
1.52676
1.58477
1.64438
1.70556
1.76829
1.83255
1.89829
1.96548
2.03408
2.10403
2.17529
2.2478
2.3215
2.39632
2.4722
2.54907
2.62685
2.70546
2.78483
2.86486
2.94547
3.02658
3.10808
3.18989
3.27192
3.35406
3.43621
3.51828
3.60017
3.68177
3.76299
3.84373
3.92388
4.00335
4.08205
4.15986
4.2367
4.31248
4.3871
4.46049
4.53256
4.60323
4.67242
4.74008
4.80613
4.87053
4.9332
4.99411
5.05322
5.11047
5.16581
5.21922
5.27064
5.32003
5.36736
5.41258
5.45566
5.49655
5.53522
5.57159
5.60561
5.63724
5.66643
5.69312
5.71722
5.73864
5.7573
5.7731
5.78596
5.79579
5.80256
5.80632
5.80658
5.80342
5.79607
5.78514
5.77061
5.75248
5.73074
5.70541
5.67652
5.6441
5.60821
5.56889
5.52624
5.48034
5.43133
5.37932
5.32446
5.2669
5.2068
5.14431
5.0796
5.01283
4.94417
4.87378
4.80184
4.72851
4.65399
4.57845
4.5021
4.42513
4.34776
4.27011
4.1925
4.11522
4.03859
3.9629
3.88866
3.81617
3.74572
3.67779
3.61291
3.55125
3.49339
3.43976
3.39076
3.34672
3.30795
3.27394
3.24617
0.0585546
0.0908874
0.113993
0.13096
0.144954
0.157318
0.168711
0.179515
0.189973
0.200252
0.210471
0.22072
0.231071
0.241583
0.252304
0.26328
0.27455
0.28615
0.298118
0.310491
0.32331
0.336609
0.350425
0.364794
0.379755
0.39535
0.411625
0.428632
0.446397
0.464958
0.484361
0.504649
0.525856
0.547953
0.571033
0.595161
0.620399
0.646813
0.67445
0.703365
0.733607
0.765224
0.798257
0.832745
0.868725
0.90623
0.945292
0.985937
1.02819
1.07206
1.1176
1.16484
1.2138
1.26445
1.31679
1.37079
1.42645
1.48374