/*--------------------------------*- C++ -*----------------------------------*\
| =========                 |                                                 |
| \\      /  F ield         | OpenFOAM: The Open Source CFD Toolbox           |
|  \\    /   O peration     | Version:  4.1                                   |
|   \\  /    A nd           | Web:      www.OpenFOAM.org                      |
|    \\/     M anipulation  |                                                 |
\*---------------------------------------------------------------------------*/
FoamFile
{
    version     2.0;
    format      ascii;
    class       volScalarField;
    location    "200";
    object      nut;
}
// * * * * * * * * * * * * * * * * * * * * * * * * * * * * * * * * * * * * * //

dimensions      [0 2 -1 0 0 0 0];

internalField   nonuniform List<scalar> 
12225
(
2.68177e-05
3.54258e-05
4.03683e-05
4.29509e-05
4.41503e-05
4.45572e-05
4.4546e-05
4.43066e-05
4.40221e-05
4.36539e-05
4.32974e-05
4.29579e-05
4.26545e-05
4.23695e-05
4.21338e-05
4.18974e-05
4.1738e-05
4.15172e-05
0.000212628
8.33004e-05
5.4725e-05
4.31727e-05
3.76067e-05
3.47168e-05
3.32714e-05
3.25592e-05
3.23583e-05
3.24534e-05
3.27934e-05
3.32593e-05
3.38756e-05
3.45307e-05
3.52956e-05
3.60449e-05
3.6868e-05
3.7698e-05
0.000672557
0.000310888
0.000195695
0.000143033
0.000113844
9.49212e-05
8.23739e-05
7.35776e-05
6.70147e-05
6.21336e-05
5.81797e-05
5.52174e-05
5.26207e-05
5.07587e-05
4.89759e-05
4.77857e-05
4.66618e-05
4.55025e-05
0.000875079
0.000622527
0.000467542
0.000363422
0.000300158
0.000255915
0.000225194
0.000202038
0.000184944
0.00017103
0.000160372
0.000151161
0.000143919
0.000137362
0.000132177
0.000127194
0.000123565
0.000118912
0.000879329
0.000788162
0.00071278
0.000617653
0.000543945
0.000484023
0.000438449
0.000401052
0.000372444
0.000347778
0.000328821
0.00031151
0.000298391
0.000285559
0.000276249
0.000266164
0.000259739
0.000251154
0.000858478
0.00084026
0.000818524
0.000774993
0.0007285
0.000681675
0.000640704
0.000602998
0.000571826
0.000543044
0.000519922
0.000497807
0.000480671
0.000463198
0.000450575
0.000436205
0.000427263
0.000414455
0.000853085
0.000852167
0.000845125
0.000832631
0.000817284
0.000794263
0.00077094
0.00074619
0.000723531
0.00070067
0.000681015
0.000661094
0.000644881
0.000627726
0.000614799
0.000599818
0.00059001
0.000576341
0.000851863
0.000852183
0.000850464
0.000847006
0.000840817
0.000831984
0.000821468
0.000808207
0.000794788
0.000780257
0.000766954
0.000752688
0.00074046
0.000727132
0.000716501
0.00070422
0.000695429
0.0006838
0.000851704
0.000851639
0.000851175
0.000850257
0.000848409
0.000845182
0.000840916
0.000835273
0.000828312
0.000820923
0.000813229
0.000804612
0.000796736
0.000787899
0.000780365
0.000771806
0.000764777
0.000756449
0.000851749
0.000851404
0.00085108
0.000850688
0.000850164
0.000849196
0.00084783
0.000845877
0.00084338
0.000840176
0.000836846
0.000832726
0.000828788
0.000824116
0.00081991
0.000814988
0.000810833
0.000805511
0.00085178
0.000851365
0.000851008
0.000850643
0.000850326
0.000849914
0.000849463
0.000848798
0.000848053
0.000846948
0.000845809
0.000844255
0.000842747
0.000840788
0.000839026
0.000836723
0.000834879
0.000832247
0.000851785
0.000851365
0.00085099
0.000850616
0.000850292
0.000849949
0.000849652
0.000849296
0.000848975
0.000848545
0.000848141
0.000847589
0.000847074
0.000846373
0.00084575
0.000844897
0.000844191
0.000843197
0.000851783
0.000851365
0.000850982
0.000850608
0.000850268
0.000849932
0.000849631
0.000849324
0.00084905
0.000848759
0.000848496
0.000848203
0.000847937
0.000847628
0.000847346
0.000847011
0.000846709
0.000846344
0.000851781
0.000851365
0.000850975
0.000850602
0.000850254
0.000849919
0.000849607
0.000849306
0.000849024
0.000848751
0.000848496
0.000848245
0.000848009
0.000847776
0.000847556
0.000847334
0.000847124
0.000846912
0.00085178
0.000851364
0.00085097
0.000850597
0.000850244
0.000849908
0.000849591
0.000849289
0.000849002
0.000848728
0.000848468
0.000848219
0.000847982
0.000847755
0.000847538
0.000847329
0.00084713
0.000846938
0.000851779
0.000851363
0.000850967
0.000850593
0.000850237
0.0008499
0.00084958
0.000849275
0.000848986
0.00084871
0.000848447
0.000848195
0.000847955
0.000847726
0.000847507
0.000847297
0.000847096
0.000846903
0.000851779
0.000851362
0.000850966
0.00085059
0.000850233
0.000849894
0.000849573
0.000849266
0.000848975
0.000848697
0.000848432
0.000848179
0.000847937
0.000847705
0.000847484
0.000847272
0.000847069
0.000846875
0.000851779
0.000851362
0.000850965
0.000850589
0.000850232
0.000849892
0.000849569
0.000849262
0.00084897
0.000848691
0.000848425
0.00084817
0.000847927
0.000847695
0.000847472
0.00084726
0.000847056
0.00084686
0.000851779
0.000851362
0.000850966
0.00085059
0.000850232
0.000849893
0.00084957
0.000849263
0.00084897
0.000848691
0.000848425
0.00084817
0.000847926
0.000847694
0.000847471
0.000847257
0.000847053
0.000846857
0.000851779
0.000851363
0.000850967
0.000850592
0.000850235
0.000849896
0.000849573
0.000849267
0.000848974
0.000848696
0.000848428
0.000848174
0.000847928
0.000847694
0.000847468
0.000847252
0.000847041
0.00084684
0.000851778
0.000851365
0.000850968
0.000850595
0.000850238
0.000849902
0.000849578
0.000849273
0.000848975
0.000848693
0.000848413
0.000848146
0.000847875
0.000847615
0.000847347
0.00084709
0.000846819
0.000846563
0.000851776
0.000851369
0.000850969
0.000850604
0.000850243
0.000849907
0.000849561
0.000849225
0.000848861
0.000848492
0.000848074
0.000847646
0.000847153
0.000846655
0.000846076
0.000845511
0.000844849
0.000844229
0.000851765
0.00085139
0.00085097
0.000850622
0.00085019
0.000849725
0.000849095
0.000848361
0.000847396
0.000846289
0.000844934
0.000843453
0.000841735
0.000839945
0.000837917
0.000835943
0.000833674
0.000831612
0.000851752
0.000851487
0.000850905
0.000850326
0.000848947
0.000847049
0.000844303
0.000840957
0.000836728
0.00083209
0.000826798
0.000821336
0.00081545
0.000809499
0.000803501
0.000797606
0.000791425
0.000785946
0.000851934
0.000851465
0.000848966
0.000844876
0.000836869
0.000827203
0.000815585
0.00080246
0.000788037
0.000773948
0.000759305
0.000745611
0.000731717
0.000719125
0.000706324
0.000695144
0.000683497
0.000673814
0.000852438
0.000845503
0.00082765
0.000805982
0.000773769
0.000741362
0.000708139
0.000677895
0.00064853
0.000622942
0.000598379
0.00057746
0.000557212
0.00054028
0.000523542
0.000509904
0.000495892
0.000484927
0.000834694
0.000800298
0.000722679
0.000644729
0.00057798
0.000524013
0.000477061
0.000439736
0.000406991
0.000381071
0.000357504
0.000339007
0.000321483
0.00030794
0.0002945
0.000284326
0.000273692
0.000265913
0.000747087
0.000565321
0.000424476
0.000338527
0.000281694
0.000241101
0.000209988
0.000187113
0.000168522
0.000154552
0.000142473
0.000133376
0.000125016
0.000118799
0.000112718
0.00010831
0.000103706
0.000100473
0.000345071
0.000180411
0.000124377
9.65999e-05
7.95263e-05
6.8522e-05
6.11085e-05
5.61035e-05
5.25363e-05
5.00691e-05
4.82443e-05
4.70089e-05
4.60729e-05
4.55008e-05
4.50602e-05
4.48712e-05
4.47119e-05
4.47627e-05
3.41198e-05
4.01624e-05
4.47622e-05
4.78934e-05
5.04606e-05
5.25068e-05
5.40894e-05
5.52767e-05
5.61323e-05
5.67235e-05
5.71007e-05
5.73182e-05
5.74054e-05
5.73736e-05
5.73467e-05
5.72046e-05
5.70539e-05
5.68742e-05
3.89501e-06
1.06801e-05
1.26695e-05
1.41685e-05
1.52725e-05
1.60856e-05
1.67261e-05
1.72904e-05
1.77866e-05
1.82447e-05
1.86914e-05
1.91505e-05
1.96488e-05
2.02338e-05
2.09217e-05
2.16717e-05
2.24531e-05
2.32588e-05
2.40876e-05
2.49436e-05
2.58276e-05
2.67419e-05
2.76845e-05
2.86555e-05
2.96517e-05
3.06733e-05
3.17215e-05
3.27832e-05
3.38526e-05
3.49275e-05
3.60047e-05
3.70837e-05
3.81622e-05
3.92406e-05
4.03164e-05
4.1391e-05
4.24622e-05
4.35329e-05
4.46049e-05
4.56838e-05
4.6774e-05
4.79021e-05
4.90112e-05
5.01246e-05
5.1233e-05
5.23415e-05
5.34475e-05
5.45534e-05
5.56576e-05
5.6762e-05
5.78649e-05
5.89683e-05
6.00705e-05
6.11731e-05
6.22745e-05
6.33764e-05
6.44769e-05
6.55777e-05
6.66768e-05
6.77757e-05
6.88724e-05
6.99685e-05
7.10619e-05
7.21539e-05
7.32425e-05
7.43291e-05
7.54115e-05
7.6491e-05
7.75654e-05
7.86361e-05
7.97008e-05
8.07607e-05
8.18135e-05
8.28605e-05
8.38993e-05
8.49312e-05
8.59538e-05
8.69684e-05
8.79725e-05
8.89675e-05
8.99508e-05
9.09236e-05
9.18836e-05
9.28318e-05
9.37657e-05
9.46863e-05
9.55912e-05
9.6481e-05
9.73537e-05
9.82094e-05
9.90464e-05
9.98632e-05
0.000100658
0.000101431
0.000102178
0.0001029
0.000103595
0.000104264
0.000104925
0.000105555
0.000106164
0.000106748
0.000107308
0.000107842
0.00010835
0.000108832
0.000109285
0.000109711
0.000110107
0.000110474
0.000110809
0.000111114
0.000111386
0.000111626
0.000111832
0.000112004
0.000112141
0.000112242
0.000112308
0.000112337
0.000112327
0.000112272
0.000112191
0.000112096
0.000111934
0.000111727
0.000111483
0.000111224
0.000110924
0.000110579
0.0001102
0.000109785
0.000109336
0.000108853
0.000108338
0.000107791
0.000107215
0.00010661
0.000105976
0.000105317
0.000104635
0.000103931
0.000103207
0.000102464
0.000101705
0.000100932
0.000100147
9.93544e-05
9.85624e-05
9.7774e-05
9.69865e-05
9.62021e-05
9.54237e-05
9.46574e-05
9.38915e-05
9.31342e-05
9.24025e-05
9.16925e-05
9.10256e-05
9.03949e-05
8.97705e-05
8.91792e-05
8.85949e-05
8.80496e-05
8.75589e-05
8.71054e-05
8.66907e-05
8.63198e-05
8.59898e-05
8.57188e-05
8.55398e-05
8.57243e-05
8.57415e-05
8.57514e-05
8.58052e-05
8.59076e-05
8.60671e-05
8.6174e-05
8.6107e-05
8.50632e-05
6.13995e-06
2.98062e-05
6.35032e-05
8.94936e-05
0.000106849
0.000117787
0.000124198
0.000127886
0.000130538
0.000132968
0.000135456
0.000138007
0.000140499
0.000142801
0.000144927
0.000146993
0.000149078
0.000151241
0.000153535
0.000156015
0.000158727
0.000161712
0.000164996
0.000168597
0.000172519
0.000176763
0.000181333
0.000186242
0.000191459
0.000196933
0.000202639
0.000208565
0.000214726
0.00022113
0.000227754
0.000234586
0.000241592
0.000248683
0.000255836
0.000263034
0.000270274
0.000277575
0.000284943
0.000292375
0.000299874
0.000307444
0.000315087
0.000322805
0.000330599
0.000338473
0.000346429
0.000354468
0.000362594
0.00037081
0.000379117
0.000387518
0.000396016
0.000404612
0.000413309
0.000422108
0.000431009
0.000440014
0.000449122
0.000458335
0.000467652
0.000477073
0.000486598
0.000496225
0.000505954
0.000515783
0.000525711
0.000535735
0.000545853
0.000556063
0.000566361
0.000576745
0.000587211
0.000597756
0.000608377
0.000619069
0.00062983
0.000640655
0.000651542
0.000662485
0.000673482
0.000684527
0.000695617
0.000706748
0.000717918
0.000729123
0.000740358
0.000751611
0.000762863
0.000774085
0.000785223
0.000796183
0.000806807
0.000816866
0.000826329
0.000835756
0.000845064
0.000854259
0.000863332
0.000872272
0.000881066
0.000889704
0.000898172
0.000906456
0.000914544
0.00092242
0.000930071
0.000937481
0.000944636
0.000951519
0.000958115
0.000964409
0.000970385
0.000976028
0.000981321
0.000986251
0.000990803
0.000994982
0.000998845
0.00100239
0.00100551
0.00100789
0.00100971
0.00101153
0.00101302
0.00101391
0.00101439
0.00101444
0.00101408
0.00101331
0.00101214
0.00101059
0.00100866
0.00100638
0.00100376
0.00100081
0.000997554
0.000994
0.00099017
0.000986082
0.000981764
0.000977233
0.000972517
0.000967652
0.000962684
0.000957638
0.000952543
0.000947455
0.000942406
0.000937407
0.000932445
0.000927582
0.000922841
0.000918247
0.000913949
0.000909899
0.000906179
0.000902786
0.000899532
0.000896512
0.000893926
0.000891805
0.000890095
0.000888712
0.000887743
0.000887138
0.000886688
0.000885369
0.000882735
0.000879889
0.000876834
0.000873368
0.000869943
0.000865484
0.000858085
0.000836555
7.65267e-06
4.73228e-05
0.000101128
0.000145846
0.000179368
0.000203543
0.000220629
0.00023268
0.000241472
0.00024832
0.000254091
0.000259294
0.000264213
0.000269013
0.000273825
0.000278766
0.000283929
0.000289391
0.000295215
0.000301464
0.000308187
0.000315425
0.000323204
0.000331534
0.000340407
0.000349797
0.000359651
0.00037011
0.000381236
0.000393128
0.00040548
0.000418204
0.000431267
0.000444637
0.000458277
0.00047215
0.00048622
0.000500459
0.000514853
0.000529396
0.000544085
0.000558925
0.000573912
0.000589036
0.000604281
0.000619674
0.000635217
0.000650914
0.000666769
0.000682786
0.000698967
0.000715317
0.000731838
0.000748536
0.000765412
0.000782472
0.000799717
0.00081715
0.000834772
0.000852584
0.000870586
0.000888778
0.000907159
0.000925728
0.000944482
0.000963419
0.000982537
0.00100183
0.0010213
0.00104094
0.00106073
0.00108069
0.0011008
0.00112105
0.00114144
0.00116196
0.0011826
0.00120336
0.00122422
0.00124518
0.00126623
0.00128736
0.00130856
0.00132982
0.00135113
0.00137248
0.00139386
0.00141526
0.00143665
0.00145803
0.00147938
0.00150067
0.00152185
0.00154287
0.00156368
0.00158417
0.00160426
0.00162387
0.00164312
0.00166218
0.00168102
0.00169962
0.00171796
0.00173602
0.00175377
0.0017712
0.00178827
0.00180495
0.00182123
0.00183708
0.00185246
0.00186734
0.00188171
0.00189552
0.00190874
0.00192136
0.00193333
0.00194462
0.00195521
0.00196508
0.00197419
0.00198256
0.00199017
0.001997
0.00200326
0.00200843
0.00201212
0.00201544
0.00201825
0.00202
0.00202086
0.00202086
0.00202001
0.00201832
0.00201582
0.00201253
0.00200847
0.00200368
0.00199817
0.00199199
0.00198517
0.00197773
0.00196973
0.0019612
0.00195219
0.00194274
0.00193293
0.00192281
0.00191245
0.00190191
0.00189126
0.00188059
0.00186995
0.00185939
0.00184893
0.00183868
0.00182866
0.00181894
0.00180967
0.00180085
0.00179259
0.0017849
0.00177766
0.00177094
0.0017649
0.00175958
0.00175489
0.00175081
0.00174754
0.00174482
0.00174235
0.00173869
0.00173406
0.00172944
0.0017243
0.00171843
0.00171216
0.00170396
0.00169066
0.00165496
8.6716e-06
6.37971e-05
0.000133456
0.000191343
0.000236143
0.000269587
0.000294265
0.000312523
0.000326328
0.000337236
0.000346403
0.00035464
0.000362489
0.000370302
0.000378309
0.000386668
0.000395484
0.00040484
0.000414795
0.000425401
0.000436697
0.000448711
0.000461462
0.00047496
0.000489211
0.000504223
0.000520025
0.000536453
0.00055338
0.00057064
0.00058832
0.000606421
0.000624912
0.000643757
0.000662915
0.000682348
0.000702014
0.00072189
0.000741999
0.000762343
0.000782925
0.000803757
0.00082486
0.000846284
0.000867909
0.000889744
0.000911792
0.000934056
0.000956542
0.000979254
0.00100219
0.00102537
0.00104878
0.00107243
0.00109632
0.00112047
0.00114486
0.00116951
0.00119441
0.00121957
0.00124499
0.00127065
0.00129657
0.00132273
0.00134913
0.00137577
0.00140264
0.00142974
0.00145705
0.00148458
0.00151231
0.00154023
0.00156833
0.00159661
0.00162504
0.00165363
0.00168236
0.00171121
0.00174017
0.00176923
0.00179838
0.0018276
0.00185687
0.00188619
0.00191553
0.00194488
0.00197422
0.00200352
0.00203277
0.00206194
0.002091
0.00211992
0.00214865
0.00217714
0.00220534
0.00223318
0.00226061
0.00228763
0.00231432
0.00234072
0.00236681
0.00239255
0.00241794
0.00244293
0.00246749
0.0024916
0.00251522
0.00253831
0.00256086
0.0025828
0.00260412
0.00262477
0.00264471
0.00266391
0.00268232
0.0026999
0.00271662
0.00273243
0.00274729
0.00276118
0.00277405
0.0027859
0.00279668
0.00280637
0.00281518
0.002823
0.0028288
0.00283358
0.00283771
0.00284051
0.00284206
0.00284241
0.00284157
0.00283955
0.00283638
0.00283209
0.0028267
0.00282027
0.00281282
0.00280439
0.00279503
0.00278479
0.00277372
0.00276188
0.00274935
0.00273618
0.00272247
0.0027083
0.00269375
0.00267893
0.00266391
0.00264879
0.00263366
0.0026186
0.00260369
0.00258901
0.00257465
0.0025607
0.00254727
0.00253443
0.00252227
0.00251083
0.0025001
0.00249013
0.00248102
0.00247282
0.00246546
0.00245896
0.00245331
0.00244835
0.00244377
0.00243846
0.00243306
0.00242764
0.00242159
0.00241567
0.00240912
0.00239954
0.00238417
0.00234756
9.3953e-06
7.79264e-05
0.00016138
0.000230429
0.000284777
0.000326279
0.000357738
0.000381725
0.000400384
0.000415447
0.000428257
0.000439813
0.000450824
0.000461773
0.000472982
0.000484662
0.000496946
0.000509923
0.000523651
0.000538167
0.000553493
0.000569639
0.000586605
0.000604376
0.000622932
0.000642236
0.000662241
0.000682864
0.000704032
0.000725688
0.000747817
0.000770398
0.0007934
0.000816794
0.000840554
0.00086466
0.000889106
0.000913882
0.000938946
0.000964285
0.000989888
0.00101575
0.00104185
0.00106815
0.0010947
0.0011215
0.00114857
0.00117591
0.00120352
0.00123142
0.00125959
0.00128806
0.0013168
0.00134584
0.00137515
0.00140475
0.00143466
0.00146486
0.00149537
0.00152617
0.00155727
0.00158866
0.00162034
0.0016523
0.00168453
0.00171703
0.00174979
0.00178279
0.00181603
0.0018495
0.00188319
0.00191708
0.00195116
0.00198541
0.00201982
0.00205438
0.00208907
0.00212387
0.00215877
0.00219375
0.00222879
0.00226388
0.00229899
0.0023341
0.0023692
0.00240426
0.00243926
0.00247417
0.00250897
0.00254364
0.00257813
0.00261242
0.00264647
0.00268024
0.0027137
0.00274681
0.00277956
0.00281195
0.00284398
0.00287566
0.00290697
0.00293787
0.00296833
0.00299834
0.00302784
0.00305681
0.00308521
0.00311301
0.00314016
0.00316663
0.00319237
0.00321734
0.00324151
0.00326481
0.00328721
0.00330866
0.00332911
0.00334852
0.00336684
0.00338403
0.00340006
0.00341487
0.00342844
0.00344072
0.00345182
0.00346197
0.00347014
0.0034766
0.00348224
0.00348639
0.00348906
0.00349028
0.00349004
0.00348838
0.00348531
0.00348086
0.00347507
0.00346798
0.00345963
0.00345006
0.00343932
0.00342747
0.00341458
0.00340072
0.00338596
0.00337041
0.00335414
0.00333726
0.00331989
0.00330211
0.00328404
0.00326578
0.00324745
0.00322914
0.00321096
0.00319302
0.00317541
0.00315826
0.00314167
0.00312573
0.00311054
0.00309617
0.00308267
0.0030701
0.00305853
0.003048
0.00303849
0.00303001
0.00302251
0.00301588
0.00300985
0.00300367
0.00299781
0.00299183
0.00298582
0.00297985
0.00297326
0.0029643
0.00294928
0.00291731
9.94008e-06
8.99432e-05
0.000185044
0.000264081
0.000326965
0.000376018
0.000414011
0.000443654
0.00046722
0.000486571
0.000503183
0.000518185
0.00053241
0.00054645
0.000560709
0.000575453
0.00059085
0.000607007
0.000623981
0.000641806
0.000660492
0.000680034
0.000700416
0.000721611
0.000743582
0.000766285
0.000789669
0.000813678
0.000838261
0.000863376
0.000888991
0.000915078
0.000941606
0.00096855
0.000995885
0.00102359
0.00105165
0.00108005
0.00110876
0.00113777
0.00116707
0.00119666
0.00122653
0.00125666
0.00128708
0.0013178
0.00134881
0.00138012
0.00141174
0.00144367
0.00147591
0.00150847
0.00154134
0.00157454
0.00160808
0.00164193
0.00167611
0.0017106
0.0017454
0.00178051
0.00181593
0.00185164
0.00188763
0.00192391
0.00196047
0.00199728
0.00203436
0.00207167
0.00210921
0.00214697
0.00218493
0.00222308
0.0022614
0.00229988
0.0023385
0.00237724
0.00241609
0.00245503
0.00249404
0.0025331
0.0025722
0.0026113
0.0026504
0.00268947
0.00272849
0.00276743
0.00280628
0.00284501
0.00288359
0.002922
0.00296021
0.0029982
0.00303592
0.00307336
0.00311049
0.00314729
0.00318375
0.00321985
0.00325559
0.00329093
0.00332587
0.00336038
0.00339442
0.00342796
0.00346098
0.00349343
0.00352528
0.0035565
0.00358704
0.00361686
0.00364592
0.00367417
0.00370158
0.00372808
0.00375364
0.00377819
0.0038017
0.00382411
0.00384537
0.00386542
0.00388423
0.00390175
0.00391792
0.00393271
0.0039461
0.00395845
0.00396909
0.00397772
0.00398504
0.00399092
0.00399517
0.00399777
0.00399873
0.00399806
0.0039958
0.00399196
0.00398658
0.00397969
0.00397134
0.00396157
0.00395043
0.00393799
0.00392431
0.00390947
0.00389357
0.00387669
0.00385895
0.00384044
0.00382129
0.00380161
0.00378152
0.00376112
0.00374056
0.00371993
0.00369937
0.003679
0.00365894
0.00363931
0.00362022
0.0036018
0.00358414
0.00356734
0.00355148
0.00353663
0.00352288
0.00351025
0.00349877
0.00348845
0.00347924
0.00347107
0.00346376
0.00345693
0.00345061
0.00344457
0.00343881
0.00343328
0.00342751
0.00342013
0.0034079
0.0033822
1.06128e-05
9.75351e-05
0.000202778
0.00029146
0.000362664
0.000419199
0.000463732
0.000499099
0.000527687
0.000551456
0.000571985
0.000590503
0.000607942
0.000624981
0.000642099
0.000659622
0.000677757
0.000696637
0.000716332
0.00073688
0.000758288
0.000780549
0.000803638
0.000827525
0.000852172
0.000877534
0.000903566
0.000930222
0.000957459
0.000985239
0.00101353
0.0010423
0.00107152
0.00110117
0.00113122
0.00116165
0.00119244
0.00122358
0.00125506
0.00128685
0.00131895
0.00135136
0.00138406
0.00141708
0.00145039
0.00148402
0.00151796
0.00155222
0.0015868
0.0016217
0.00165693
0.00169248
0.00172835
0.00176456
0.00180109
0.00183795
0.00187513
0.00191262
0.00195042
0.00198853
0.00202693
0.00206563
0.00210461
0.00214386
0.00218338
0.00222315
0.00226316
0.0023034
0.00234386
0.00238452
0.00242537
0.00246639
0.00250757
0.00254889
0.00259033
0.00263188
0.00267351
0.00271521
0.00275696
0.00279874
0.00284054
0.00288232
0.00292408
0.00296578
0.00300742
0.00304896
0.00309038
0.00313167
0.0031728
0.00321374
0.00325447
0.00329497
0.00333521
0.00337517
0.00341483
0.00345417
0.00349317
0.00353182
0.00357011
0.00360801
0.00364549
0.00368254
0.00371913
0.00375522
0.00379079
0.00382581
0.00386023
0.00389402
0.00392715
0.00395957
0.00399124
0.00402212
0.00405216
0.00408131
0.00410953
0.00413675
0.00416292
0.004188
0.00421192
0.00423463
0.00425608
0.0042762
0.00429495
0.00431228
0.00432813
0.0043428
0.00435591
0.00436705
0.00437644
0.00438443
0.00439066
0.00439512
0.00439779
0.00439868
0.00439781
0.00439521
0.00439089
0.00438489
0.00437725
0.00436801
0.00435722
0.00434494
0.00433125
0.00431623
0.00429995
0.00428254
0.00426408
0.00424471
0.00422453
0.00420367
0.00418224
0.00416038
0.00413821
0.00411587
0.00409349
0.0040712
0.00404914
0.00402744
0.00400622
0.00398562
0.00396575
0.00394673
0.00392866
0.00391163
0.00389572
0.003881
0.00386751
0.00385527
0.00384427
0.00383447
0.00382577
0.00381795
0.00381096
0.00380466
0.00379902
0.00379396
0.00378916
0.00378357
0.00377462
0.00375628
1.13708e-05
0.000101605
0.00021517
0.000312846
0.000392062
0.000455957
0.000506999
0.00054812
0.000581791
0.000610055
0.000634564
0.000656626
0.000677247
0.000697183
0.000716978
0.000737013
0.000757545
0.000778735
0.000800679
0.000823427
0.000846994
0.000871378
0.000896558
0.000922506
0.000949186
0.000976561
0.00100459
0.00103323
0.00106244
0.00109219
0.00112245
0.00115318
0.00118437
0.00121598
0.00124799
0.00128039
0.00131316
0.00134628
0.00137973
0.00141351
0.0014476
0.00148201
0.00151672
0.00155175
0.00158708
0.00162273
0.0016587
0.00169498
0.00173158
0.00176849
0.00180573
0.00184329
0.00188117
0.00191936
0.00195787
0.0019967
0.00203583
0.00207526
0.002115
0.00215502
0.00219533
0.00223591
0.00227676
0.00231788
0.00235924
0.00240084
0.00244267
0.00248471
0.00252696
0.00256939
0.002612
0.00265477
0.00269768
0.00274072
0.00278387
0.00282711
0.00287043
0.00291381
0.00295723
0.00300067
0.00304412
0.00308755
0.00313094
0.00317428
0.00321754
0.00326071
0.00330376
0.00334668
0.00338943
0.00343201
0.00347439
0.00351655
0.00355847
0.00360012
0.00364149
0.00368256
0.00372332
0.00376375
0.00380383
0.00384354
0.00388286
0.00392177
0.00396024
0.00399824
0.00403575
0.00407274
0.00410918
0.00414503
0.00418025
0.00421481
0.00424867
0.00428179
0.00431411
0.0043456
0.0043762
0.00440585
0.0044345
0.00446209
0.00448857
0.00451386
0.00453792
0.00456068
0.00458208
0.00460205
0.00462054
0.00463775
0.00465345
0.00466732
0.00467922
0.00468966
0.00469828
0.00470503
0.00470986
0.00471277
0.00471379
0.00471293
0.00471021
0.00470565
0.00469928
0.00469114
0.00468128
0.00466975
0.00465662
0.00464198
0.00462591
0.00460851
0.00458989
0.00457017
0.00454946
0.00452789
0.00450558
0.00448267
0.00445929
0.00443558
0.00441168
0.00438774
0.00436391
0.00434031
0.0043171
0.00429441
0.00427238
0.00425114
0.0042308
0.00421149
0.0041933
0.00417632
0.00416061
0.00414624
0.00413322
0.00412155
0.0041112
0.00410206
0.0040941
0.00408724
0.00408146
0.00407672
0.00407282
0.00406896
0.00406318
0.00405157
1.20262e-05
0.000103868
0.000223759
0.000329178
0.000415712
0.000486549
0.000543878
0.000590642
0.00062935
0.000662091
0.000690569
0.000716144
0.000739882
0.000762597
0.000784892
0.000807201
0.000829825
0.000852963
0.000876741
0.00090123
0.000926463
0.000952444
0.000979165
0.00100661
0.00103475
0.00106355
0.00109298
0.001123
0.00115357
0.00118466
0.00121624
0.00124829
0.00128077
0.00131367
0.00134697
0.00138064
0.00141468
0.00144907
0.00148379
0.00151882
0.00155416
0.0015898
0.00162573
0.00166197
0.0016985
0.00173534
0.00177247
0.00180991
0.00184766
0.00188571
0.00192406
0.00196271
0.00200167
0.00204092
0.00208048
0.00212032
0.00216046
0.00220088
0.00224158
0.00228255
0.0023238
0.0023653
0.00240706
0.00244907
0.00249131
0.00253379
0.00257648
0.00261938
0.00266247
0.00270575
0.0027492
0.00279281
0.00283656
0.00288044
0.00292443
0.00296852
0.00301269
0.00305693
0.00310122
0.00314554
0.00318987
0.0032342
0.00327851
0.00332278
0.00336699
0.00341111
0.00345514
0.00349906
0.00354283
0.00358646
0.00362991
0.00367316
0.0037162
0.00375901
0.00380157
0.00384387
0.00388588
0.00392759
0.00396899
0.00401005
0.00405077
0.0040911
0.00413105
0.00417057
0.00420966
0.00424827
0.00428638
0.00432397
0.004361
0.00439744
0.00443324
0.00446837
0.00450278
0.00453643
0.00456927
0.00460124
0.00463228
0.00466234
0.00469135
0.00471924
0.00474596
0.00477143
0.00479559
0.00481836
0.00483967
0.00485966
0.00487812
0.00489486
0.00490973
0.00492293
0.00493429
0.00494372
0.0049511
0.00495645
0.00495979
0.00496111
0.00496042
0.00495775
0.00495312
0.00494654
0.00493807
0.00492774
0.00491563
0.00490182
0.00488638
0.00486941
0.00485102
0.00483133
0.00481044
0.00478849
0.00476559
0.00474189
0.00471753
0.00469265
0.0046674
0.00464194
0.00461641
0.00459096
0.00456576
0.00454094
0.00451667
0.00449308
0.00447033
0.00444854
0.00442783
0.00440834
0.00439014
0.00437334
0.00435799
0.00434414
0.00433182
0.00432101
0.00431172
0.00430395
0.00429772
0.00429305
0.00428984
0.00428751
0.00428456
0.0042781
1.25754e-05
0.000104831
0.000229281
0.000341074
0.000434175
0.000511196
0.000574461
0.000626615
0.000670184
0.000707273
0.000739612
0.000768596
0.000795332
0.000820678
0.000845284
0.000869632
0.000894064
0.00091882
0.000944058
0.000969878
0.000996329
0.00102343
0.00105117
0.00107955
0.00110861
0.00113831
0.00116859
0.00119943
0.00123078
0.00126261
0.00129491
0.00132763
0.00136077
0.0013943
0.00142821
0.00146249
0.00149711
0.00153209
0.00156743
0.00160302
0.00163888
0.00167501
0.0017114
0.00174807
0.001785
0.00182221
0.0018597
0.00189746
0.0019355
0.00197383
0.00201243
0.00205131
0.00209047
0.0021299
0.00216961
0.00220959
0.00224985
0.00229037
0.00233116
0.00237221
0.00241352
0.00245508
0.0024969
0.00253896
0.00258125
0.00262378
0.00266653
0.0027095
0.00275267
0.00279605
0.0028396
0.00288334
0.00292724
0.00297129
0.00301548
0.00305979
0.00310421
0.00314873
0.00319332
0.00323798
0.00328269
0.00332743
0.00337217
0.00341691
0.00346163
0.0035063
0.00355091
0.00359544
0.00363987
0.00368419
0.00372836
0.00377239
0.00381623
0.00385989
0.00390333
0.00394656
0.00398954
0.00403226
0.00407471
0.00411687
0.00415872
0.00420025
0.00424143
0.00428226
0.0043227
0.00436273
0.00440234
0.00444149
0.00448015
0.0045183
0.0045559
0.00459292
0.00462931
0.00466503
0.00470004
0.00473427
0.00476767
0.00480019
0.00483174
0.00486228
0.00489172
0.00491998
0.00494701
0.00497272
0.00499704
0.00502001
0.00504145
0.00506125
0.00507933
0.00509566
0.0051101
0.00512257
0.00513285
0.00514099
0.00514701
0.00515089
0.00515263
0.00515225
0.00514974
0.00514512
0.00513842
0.00512969
0.00511897
0.00510635
0.00509189
0.00507569
0.00505785
0.00503848
0.00501769
0.00499559
0.00497233
0.00494804
0.00492286
0.00489693
0.00487043
0.00484349
0.00481629
0.00478898
0.00476173
0.00473471
0.00470807
0.00468199
0.00465662
0.00463213
0.00460866
0.00458637
0.00456539
0.00454584
0.00452784
0.00451149
0.00449686
0.00448403
0.00447306
0.00446403
0.00445702
0.00445211
0.0044493
0.00444819
0.0044477
0.00444582
1.3027e-05
0.000104778
0.000232248
0.000349096
0.000447868
0.000530326
0.000598931
0.000656052
0.000704159
0.000745339
0.000781321
0.000813515
0.000843052
0.000870822
0.000897512
0.000923642
0.000949591
0.000975627
0.00100194
0.00102871
0.00105598
0.00108377
0.00111208
0.00114085
0.00117024
0.0012002
0.0012307
0.0012617
0.00129318
0.00132512
0.00135749
0.00139027
0.00142345
0.00145701
0.00149093
0.00152519
0.0015598
0.00159475
0.00163003
0.00166546
0.00170111
0.00173698
0.00177306
0.00180937
0.00184589
0.00188265
0.00191965
0.00195689
0.00199438
0.00203212
0.00207012
0.00210836
0.00214687
0.00218563
0.00222465
0.00226393
0.00230347
0.00234327
0.00238333
0.00242366
0.00246426
0.00250512
0.00254624
0.00258763
0.00262928
0.00267119
0.00271335
0.00275576
0.00279842
0.00284131
0.00288443
0.00292778
0.00297134
0.00301509
0.00305904
0.00310317
0.00314745
0.00319189
0.00323646
0.00328115
0.00332593
0.0033708
0.00341574
0.00346072
0.00350573
0.00355075
0.00359575
0.00364072
0.00368564
0.00373049
0.00377525
0.0038199
0.00386441
0.00390878
0.00395299
0.00399701
0.00404083
0.00408444
0.00412782
0.00417096
0.00421384
0.00425644
0.00429876
0.00434077
0.00438246
0.0044238
0.00446479
0.0045054
0.0045456
0.00458538
0.00462469
0.00466352
0.00470182
0.00473955
0.00477667
0.00481313
0.00484887
0.00488383
0.00491795
0.00495115
0.00498336
0.0050145
0.0050445
0.00507326
0.00510072
0.00512683
0.00515147
0.00517453
0.00519604
0.00521577
0.00523358
0.00524945
0.00526292
0.00527417
0.00528319
0.00528998
0.0052945
0.00529675
0.00529672
0.00529442
0.00528985
0.00528305
0.00527407
0.00526297
0.00524981
0.00523468
0.00521767
0.00519889
0.00517843
0.00515643
0.005133
0.00510829
0.00508243
0.00505558
0.0050279
0.00499956
0.00497071
0.00494153
0.00491219
0.00488288
0.00485377
0.00482505
0.00479691
0.00476952
0.00474307
0.00471774
0.0046937
0.00467113
0.00465018
0.00463101
0.00461376
0.00459857
0.00458559
0.00457496
0.00456683
0.00456135
0.00455861
0.00455839
0.00455992
0.00456193
1.33902e-05
0.000103917
0.000233051
0.000353669
0.000457069
0.000544165
0.000617425
0.000678958
0.000731143
0.000776019
0.000815298
0.000850388
0.000882426
0.000912316
0.000940775
0.000968386
0.000995539
0.00102249
0.00104937
0.00107654
0.00110404
0.00113195
0.00116032
0.0011892
0.00121861
0.00124849
0.00127881
0.00130954
0.00134066
0.00137215
0.00140399
0.00143617
0.00146868
0.00150149
0.00153457
0.0015679
0.00160153
0.00163548
0.00166975
0.00170425
0.00173893
0.00177378