/*--------------------------------*- C++ -*----------------------------------*\
| =========                 |                                                 |
| \\      /  F ield         | OpenFOAM: The Open Source CFD Toolbox           |
|  \\    /   O peration     | Version:  4.1                                   |
|   \\  /    A nd           | Web:      www.OpenFOAM.org                      |
|    \\/     M anipulation  |                                                 |
\*---------------------------------------------------------------------------*/
FoamFile
{
    version     2.0;
    format      ascii;
    class       volScalarField;
    location    "200";
    object      p;
}
// * * * * * * * * * * * * * * * * * * * * * * * * * * * * * * * * * * * * * //

dimensions      [0 2 -2 0 0 0 0];

internalField   nonuniform List<scalar> 
12225
(
-2.67953
-4.91209
-6.02589
-6.33528
-6.50998
-6.68931
-6.83794
-6.9498
-7.04175
-7.1252
-7.20317
-7.27674
-7.34767
-7.41806
-7.4906
-7.56485
-7.65636
-7.71336
-5.8677
-6.69855
-6.902
-6.80267
-6.77394
-6.83892
-6.92329
-6.99882
-7.06948
-7.1398
-7.20945
-7.27756
-7.34477
-7.41239
-7.48226
-7.55587
-7.63828
-7.74666
-6.26458
-6.1909
-6.30381
-6.3941
-6.50921
-6.65772
-6.79706
-6.91083
-7.00719
-7.09457
-7.17577
-7.25181
-7.32435
-7.39529
-7.46677
-7.54013
-7.62025
-7.7052
-6.1374
-6.03933
-6.30402
-6.50936
-6.63805
-6.76081
-6.87519
-6.97021
-7.05165
-7.12701
-7.19882
-7.26756
-7.33423
-7.40011
-7.46654
-7.53422
-7.60387
-7.66928
-6.13296
-6.14605
-6.39528
-6.56725
-6.66099
-6.75777
-6.85991
-6.95124
-7.03212
-7.10791
-7.18056
-7.2502
-7.31745
-7.38324
-7.44843
-7.51307
-7.57627
-7.63386
-6.20122
-6.2473
-6.4288
-6.57122
-6.66278
-6.75846
-6.85958
-6.95125
-7.0325
-7.10799
-7.17984
-7.24836
-7.31408
-7.37775
-7.43985
-7.50007
-7.55727
-7.60846
-6.27191
-6.31399
-6.44953
-6.58004
-6.67621
-6.76969
-6.86539
-6.95339
-7.03232
-7.10576
-7.17561
-7.24222
-7.30593
-7.3672
-7.4262
-7.48245
-7.53479
-7.58099
-6.32625
-6.36274
-6.47508
-6.59527
-6.68988
-6.7788
-6.8689
-6.95344
-7.03045
-7.10233
-7.17067
-7.23578
-7.29786
-7.35717
-7.41372
-7.46699
-7.516
-7.5591
-6.37177
-6.40523
-6.50115
-6.61016
-6.70126
-6.78625
-6.87187
-6.95345
-7.02867
-7.09904
-7.16588
-7.2295
-7.28999
-7.34748
-7.40187
-7.45268
-7.49913
-7.54
-6.41922
-6.4498
-6.53041
-6.62718
-6.71368
-6.7947
-6.87571
-6.95384
-7.02678
-7.09525
-7.16025
-7.22206
-7.2807
-7.33615
-7.38828
-7.43668
-7.48076
-7.51969
-6.46784
-6.49502
-6.56216
-6.64691
-6.7277
-6.8043
-6.88044
-6.95462
-7.02478
-7.09095
-7.15378
-7.21349
-7.27001
-7.32327
-7.37309
-7.41916
-7.46108
-7.49835
-6.51645
-6.53997
-6.59578
-6.66916
-6.74322
-6.81485
-6.88596
-6.95583
-7.02272
-7.08621
-7.14656
-7.20388
-7.25808
-7.30901
-7.35652
-7.40038
-7.44036
-7.47618
-6.56371
-6.58371
-6.63012
-6.6931
-6.75985
-6.82604
-6.89205
-6.95737
-7.02061
-7.08105
-7.13863
-7.19334
-7.24505
-7.2936
-7.33885
-7.38064
-7.41889
-7.45343
-6.60804
-6.62488
-6.66359
-6.71744
-6.77683
-6.83733
-6.89824
-6.95893
-7.01825
-7.07537
-7.12999
-7.18196
-7.23111
-7.27729
-7.32038
-7.36027
-7.39696
-7.43039
-6.64744
-6.66163
-6.69416
-6.74032
-6.79287
-6.84777
-6.90372
-6.95989
-7.01526
-7.06897
-7.12056
-7.16978
-7.21642
-7.26034
-7.30142
-7.33961
-7.37493
-7.40737
-6.67936
-6.69145
-6.71924
-6.75931
-6.806
-6.85582
-6.90725
-6.9593
-7.01097
-7.06143
-7.11015
-7.15678
-7.20111
-7.24298
-7.28229
-7.319
-7.35315
-7.38476
-6.70033
-6.71093
-6.73539
-6.77108
-6.81337
-6.85919
-6.90698
-6.95567
-7.00429
-7.05204
-7.09833
-7.1428
-7.18521
-7.2254
-7.26328
-7.29883
-7.33207
-7.36304
-6.70512
-6.71496
-6.73777
-6.7713
-6.81135
-6.85504
-6.90081
-6.9476
-6.99445
-7.04058
-7.08541
-7.12856
-7.16979
-7.20897
-7.246
-7.28086
-7.31357
-7.34419
-6.69361
-6.70342
-6.72621
-6.75981
-6.79997
-6.84364
-6.88923
-6.93578
-6.98238
-7.02822
-7.07273
-7.11555
-7.15647
-7.19536
-7.23216
-7.26685
-7.29946
-7.33005
-6.67061
-6.68083
-6.70475
-6.74022
-6.78241
-6.82768
-6.87448
-6.92206
-6.96955
-7.0161
-7.06114
-7.10437
-7.14562
-7.18478
-7.22178
-7.25666
-7.28943
-7.32021
-6.63954
-6.65029
-6.67623
-6.7153
-6.76106
-6.80899
-6.85795
-6.90756
-6.95681
-7.00472
-7.05081
-7.0949
-7.13687
-7.17661
-7.21411
-7.2494
-7.28256
-7.31369
-6.60296
-6.61367
-6.64241
-6.68737
-6.73812
-6.78903
-6.84056
-6.89291
-6.94457
-6.99433
-7.04187
-7.08714
-7.13006
-7.17056
-7.20865
-7.24441
-7.27796
-7.30939
-6.56321
-6.57215
-6.60408
-6.65778
-6.71504
-6.76929
-6.82374
-6.87908
-6.9332
-6.98488
-7.03404
-7.08072
-7.12481
-7.16625
-7.20511
-7.24154
-7.27565
-7.30766
-6.52211
-6.52709
-6.56393
-6.62764
-6.69042
-6.7486
-6.80787
-6.8673
-6.92395
-6.97728
-7.02781
-7.07563
-7.12056
-7.16262
-7.20193
-7.2387
-7.27307
-7.30517
-6.4795
-6.47433
-6.52952
-6.60626
-6.66687
-6.72462
-6.78903
-6.85395
-6.91435
-6.97048
-7.02346
-7.07332
-7.11984
-7.16306
-7.20323
-7.24065
-7.27557
-7.3084
-6.44179
-6.38739
-6.48811
-6.60058
-6.6611
-6.7127
-6.7753
-6.83977
-6.89967
-6.95579
-7.00934
-7.06003
-7.10743
-7.15154
-7.1926
-7.23089
-7.26659
-7.2998
-6.46272
-6.26673
-6.38106
-6.54379
-6.64169
-6.71808
-6.79449
-6.86474
-6.92656
-6.98307
-7.03606
-7.08547
-7.13112
-7.17324
-7.21224
-7.24852
-7.2825
-7.31509
-6.60254
-6.35107
-6.32088
-6.37126
-6.44699
-6.54707
-6.65133
-6.74404
-6.82531
-6.89931
-6.96748
-7.02956
-7.08566
-7.13636
-7.18233
-7.22424
-7.26277
-7.29912
-6.35918
-6.92852
-7.03811
-6.90821
-6.82329
-6.82706
-6.86478
-6.90585
-6.94817
-6.99375
-7.04084
-7.08695
-7.13081
-7.17203
-7.21049
-7.24618
-7.27939
-7.31157
-3.38606
-5.03205
-6.00588
-6.28917
-6.4167
-6.55711
-6.68498
-6.78434
-6.86561
-6.93818
-7.00423
-7.06361
-7.11676
-7.16451
-7.20748
-7.24589
-7.27981
-7.30784
-8.11151
-8.11131
-8.11172
-8.11292
-8.11458
-8.11643
-8.11838
-8.12043
-8.12259
-8.12487
-8.1273
-8.12993
-8.1328
-8.13596
-8.13943
-8.14327
-8.1475
-8.15216
-8.15731
-8.16299
-8.16925
-8.17614
-8.1837
-8.19199
-8.20105
-8.21093
-8.22166
-8.23329
-8.24582
-8.25929
-8.2737
-8.28905
-8.30531
-8.32249
-8.34056
-8.3595
-8.37931
-8.39998
-8.42147
-8.44373
-8.46665
-8.49016
-8.5142
-8.53873
-8.56369
-8.58907
-8.61479
-8.64083
-8.66711
-8.69361
-8.72023
-8.74694
-8.77365
-8.80032
-8.82683
-8.85313
-8.8791
-8.90468
-8.92975
-8.95422
-8.97795
-9.00085
-9.02275
-9.04357
-9.06311
-9.08127
-9.09784
-9.1127
-9.12563
-9.1365
-9.14509
-9.15122
-9.15467
-9.15526
-9.15275
-9.14694
-9.13758
-9.12447
-9.10735
-9.086
-9.06016
-9.02961
-8.99409
-8.95339
-8.90723
-8.85539
-8.7976
-8.73363
-8.66322
-8.58616
-8.50227
-8.41136
-8.31328
-8.20795
-8.09535
-7.97536
-7.84759
-7.71152
-7.56699
-7.41413
-7.25297
-7.08356
-6.90589
-6.72001
-6.52598
-6.32393
-6.11397
-5.89626
-5.67102
-5.43849
-5.19893
-4.95268
-4.70008
-4.44151
-4.1774
-3.90819
-3.63438
-3.35646
-3.07497
-2.79045
-2.50346
-2.21459
-1.92439
-1.63343
-1.34228
-1.05149
-0.7616
-0.473113
-0.186514
0.0977367
0.379227
0.657553
0.932339
1.20324
1.46997
1.73232
1.9901
2.24313
2.49129
2.73449
2.97276
3.20613
3.43472
3.65861
3.878
4.09307
4.30411
4.51133
4.71505
4.91562
5.11345
5.30902
5.50282
5.69538
5.88722
6.07894
6.27115
6.46448
6.65958
6.85714
7.05783
7.26236
7.47139
7.68561
7.9056
8.13193
8.36508
8.6054
8.85307
9.10824
9.37086
9.64032
9.91544
10.1953
10.479
10.7655
11.0541
11.3433
11.6435
11.941
-8.11124
-8.11131
-8.11185
-8.11297
-8.1143
-8.11558
-8.11675
-8.11786
-8.11904
-8.12039
-8.12201
-8.12393
-8.12615
-8.12867
-8.1315
-8.1347
-8.13831
-8.14236
-8.1469
-8.15198
-8.15765
-8.16398
-8.17102
-8.17882
-8.18742
-8.19688
-8.20722
-8.21848
-8.23069
-8.24386
-8.25799
-8.27308
-8.28911
-8.30606
-8.3239
-8.34261
-8.36216
-8.38253
-8.40367
-8.42553
-8.44805
-8.47117
-8.49482
-8.51898
-8.54358
-8.5686
-8.59397
-8.61966
-8.64561
-8.67177
-8.69808
-8.72449
-8.75092
-8.7773
-8.80356
-8.82963
-8.8554
-8.8808
-8.90572
-8.93006
-8.9537
-8.97653
-8.99842
-9.01923
-9.03883
-9.05706
-9.07377
-9.0888
-9.10196
-9.1131
-9.12201
-9.12851
-9.1324
-9.13347
-9.1315
-9.12629
-9.1176
-9.10522
-9.0889
-9.06841
-9.04351
-9.01398
-8.97955
-8.94
-8.89509
-8.84458
-8.78822
-8.72577
-8.657
-8.58169
-8.49966
-8.41069
-8.3146
-8.21118
-8.10021
-7.9814
-7.8546
-7.71986
-7.57717
-7.42639
-7.26744
-7.10028
-6.92491
-6.74135
-6.54966
-6.34992
-6.14227
-5.92685
-5.70386
-5.47354
-5.23614
-4.99197
-4.74137
-4.48471
-4.2224
-3.95489
-3.68264
-3.40615
-3.12593
-2.84254
-2.55653
-2.26846
-1.97891
-1.68844
-1.39762
-1.10699
-0.8171
-0.528461
-0.241562
0.0431382
0.325209
0.604245
0.87986
1.15171
1.4195
1.683
1.94201
2.19635
2.44586
2.69047
2.93018
3.16502
3.39507
3.62043
3.84126
4.05775
4.27014
4.47867
4.68361
4.88529
5.08414
5.2806
5.47516
5.66833
5.86064
6.05266
6.24498
6.43824
6.63308
6.83017
7.03018
7.23382
7.44173
7.65462
7.87308
8.09766
8.32891
8.56721
8.81272
9.06556
9.32567
9.59248
9.86505
10.1426
10.4244
10.7095
10.9978
11.2874
11.5912
11.8827
-8.10737
-8.10822
-8.10963
-8.11109
-8.11224
-8.11302
-8.11352
-8.11391
-8.11433
-8.11491
-8.11573
-8.11685
-8.11832
-8.12017
-8.12243
-8.12513
-8.12831
-8.13201
-8.13627
-8.14114
-8.14667
-8.15291
-8.1599
-8.16769
-8.1763
-8.18578
-8.19615
-8.20741
-8.21959
-8.23269
-8.24669
-8.26159
-8.27738
-8.29405
-8.31155
-8.32988
-8.34898
-8.36885
-8.38944
-8.41071
-8.43261
-8.45511
-8.47814
-8.50168
-8.52567
-8.55008
-8.57485
-8.59996
-8.62533
-8.65093
-8.67669
-8.70257
-8.72848
-8.75438
-8.78017
-8.80579
-8.83115
-8.85616
-8.88072
-8.90473
-8.92807
-8.95065
-8.97232
-8.99295
-9.01241
-9.03056
-9.04722
-9.06226
-9.07549
-9.08674
-9.09583
-9.10257
-9.10676
-9.1082
-9.10667
-9.10198
-9.09388
-9.08215
-9.06658
-9.04691
-9.02293
-8.99438
-8.96103
-8.92265
-8.879
-8.82983
-8.77491
-8.714
-8.64686
-8.57329
-8.49309
-8.40607
-8.31201
-8.21071
-8.10194
-7.98542
-7.86099
-7.72864
-7.58837
-7.44007
-7.28368
-7.11913
-6.94641
-6.76555
-6.57657
-6.37956
-6.17464
-5.96193
-5.74164
-5.51396
-5.27917
-5.03754
-4.7894
-4.53512
-4.27509
-4.00973
-3.73951
-3.46491
-3.18643
-2.90462
-2.62002
-2.33318
-2.04469
-1.7551
-1.46499
-1.17488
-0.885322
-0.596848
-0.309947
-0.0250765
0.257323
0.536841
0.813082
1.0857
1.3544
1.61892
1.87905
2.1346
2.38539
2.63137
2.87248
3.10877
3.34028
3.56709
3.78935
4.00724
4.22097
4.43076
4.63688
4.83963
5.03943
5.23669
5.43189
5.6255
5.81806
6.01011
6.20224
6.39504
6.58917
6.78526
6.984
7.18604
7.39207
7.6028
7.81882
8.0407
8.26899
8.5042
8.74655
8.99614
9.25292
9.51647
9.78606
10.0611
10.3409
10.6247
10.913
11.2032
11.5104
11.7897
-8.09965
-8.10154
-8.10442
-8.10683
-8.10845
-8.10948
-8.11011
-8.11053
-8.11088
-8.11132
-8.11194
-8.11283
-8.11406
-8.11568
-8.11774
-8.12027
-8.12333
-8.12694
-8.13117
-8.13604
-8.1416
-8.1479
-8.15496
-8.16282
-8.17151
-8.18104
-8.19144
-8.20271
-8.21484
-8.22784
-8.24171
-8.25643
-8.27199
-8.28837
-8.30555
-8.32351
-8.34222
-8.36164
-8.38175
-8.40252
-8.4239
-8.44587
-8.46837
-8.49138
-8.51485
-8.53875
-8.56303
-8.58765
-8.61256
-8.63771
-8.66304
-8.68851
-8.71404
-8.73957
-8.76503
-8.79034
-8.81541
-8.84017
-8.8645
-8.88832
-8.91151
-8.93396
-8.95554
-8.97613
-8.99558
-9.01375
-9.03049
-9.04564
-9.05903
-9.07049
-9.07984
-9.08688
-9.09143
-9.09328
-9.09222
-9.08805
-9.08053
-9.06944
-9.05456
-9.03566
-9.0125
-8.98483
-8.95244
-8.91507
-8.87248
-8.82445
-8.77072
-8.71107
-8.64525
-8.57305
-8.49428
-8.40872
-8.31617
-8.21641
-8.10924
-7.99442
-7.87182
-7.74136
-7.60299
-7.45663
-7.30219
-7.13964
-6.96894
-6.7901
-6.60316
-6.40819
-6.2053
-5.99461
-5.77631
-5.5506
-5.31772
-5.07795
-4.83162
-4.57907
-4.32068
-4.05688
-3.78812
-3.51486
-3.23762
-2.95691
-2.67329
-2.38729
-2.0995
-1.81049
-1.52083
-1.23103
-0.941625
-0.653174
-0.366174
-0.0810801
0.201664
0.481644
0.758459
1.03177
1.30126
1.56668
1.82777
2.08436
2.33627
2.58343
2.82577
3.06333
3.29611
3.52422
3.74777
3.96692
4.18188
4.39284
4.60007
4.80387
5.00463
5.20276
5.3987
5.59291
5.7859
5.97821
6.17041
6.36308
6.55682
6.75228
6.95015
7.15106
7.35565
7.56461
7.7786
7.99819
8.2239
8.45618
8.6953
8.94145
9.19463
9.45456
9.72076
9.99269
10.2699
10.5515
10.8382
11.1269
11.432
11.6981
-8.08957
-8.09261
-8.09737
-8.10118
-8.10369
-8.10537
-8.10651
-8.10731
-8.10796
-8.10861
-8.1094
-8.11043
-8.11179
-8.11353
-8.11573
-8.11842
-8.12165
-8.12547
-8.12991
-8.13501
-8.14081
-8.14734
-8.15462
-8.16269
-8.17155
-8.18124
-8.19175
-8.20309
-8.21525
-8.22825
-8.24206
-8.25668
-8.27209
-8.28828
-8.30522
-8.3229
-8.3413
-8.36038
-8.38013
-8.40051
-8.42149
-8.44305
-8.46514
-8.48774
-8.51081
-8.53432
-8.55822
-8.58248
-8.60704
-8.63185
-8.65687
-8.68204
-8.7073
-8.73258
-8.75781
-8.78291
-8.8078
-8.8324
-8.85661
-8.88032
-8.90344
-8.92584
-8.9474
-8.968
-8.9875
-9.00575
-9.02261
-9.03791
-9.05148
-9.06317
-9.07277
-9.08012
-9.085
-9.08723
-9.08659
-9.08287
-9.07586
-9.06532
-9.05103
-9.03276
-9.01027
-8.98333
-8.9517
-8.91514
-8.87341
-8.82626
-8.77347
-8.71479
-8.64998
-8.57883
-8.50114
-8.41669
-8.32526
-8.22666
-8.12068
-8.00713
-7.88585
-7.75674
-7.61973
-7.47472
-7.32163
-7.16043
-6.99108
-6.81358
-6.62796
-6.4343
-6.23269
-6.02326
-5.80618
-5.58164
-5.3499
-5.11121
-4.8659
-4.61431
-4.35681
-4.09383
-3.82581
-3.55322
-3.27656
-2.99635
-2.71313
-2.42746
-2.1399
-1.85104
-1.56144
-1.27165
-0.982165
-0.69355
-0.406317
-0.120933
0.162169
0.442556
0.719846
0.993677
1.26375
1.52977
1.79151
2.04876
2.30138
2.54926
2.79236
3.03066
3.2642
3.49303
3.7173
3.93713
4.15271
4.36425
4.57199
4.77627
4.97744
5.17592
5.37211
5.56649
5.75952
5.95177
6.14377
6.33612
6.52939
6.72421
6.92123
7.12112
7.32452
7.53208
7.74442
7.96212
8.18572
8.41567
8.65228
8.89575
9.14613
9.40324
9.66673
9.93617
10.2111
10.4907
10.7754
11.0615
11.3622
11.6163
-8.07925
-8.08332
-8.08996
-8.09528
-8.09884
-8.10136
-8.10321
-8.10461
-8.10576
-8.10685
-8.10803
-8.10942
-8.11111
-8.11319
-8.11571
-8.11874
-8.12231
-8.12647
-8.13125
-8.1367
-8.14283
-8.14968
-8.15726
-8.16559
-8.1747
-8.18459
-8.19525
-8.20671
-8.21895
-8.23197
-8.24576
-8.26031
-8.27562
-8.29166
-8.30842
-8.3259
-8.34405
-8.36287
-8.38234
-8.40243
-8.42311
-8.44436
-8.46615
-8.48845
-8.51123
-8.53445
-8.55807
-8.58206
-8.60637
-8.63095
-8.65575
-8.68072
-8.7058
-8.73092
-8.75601
-8.781
-8.8058
-8.83033
-8.85449
-8.87819
-8.90131
-8.92375
-8.94537
-8.96605
-8.98566
-9.00405
-9.02108
-9.03657
-9.05037
-9.06231
-9.0722
-9.07985
-9.08508
-9.08768
-9.08744
-9.08416
-9.0776
-9.06755
-9.05379
-9.03607
-9.01416
-8.98784
-8.95685
-8.92095
-8.87992
-8.8335
-8.78145
-8.72354
-8.65953
-8.5892
-8.51235
-8.42874
-8.33818
-8.24044
-8.13535
-8.02271
-7.90237
-7.77421
-7.63813
-7.49404
-7.34186
-7.18154
-7.01305
-6.83639
-6.65159
-6.4587
-6.25783
-6.0491
-5.83268
-5.60875
-5.37756
-5.13938
-4.89451
-4.64331
-4.38614
-4.12343
-3.85561
-3.58316
-3.30658
-3.02638
-2.74313
-2.45736
-2.16966
-1.88059
-1.59075
-1.3007
-1.01094
-0.721995
-0.434413
-0.148661
0.13482
0.4156
0.693291
0.967536
1.23801
1.50443
1.76656
2.02418
2.27716
2.52539
2.76881
3.00741
3.2412
3.47027
3.6947
3.91464
4.13026
4.34177
4.54942
4.75354
4.95449
5.15266
5.34847
5.54239
5.73489
5.92649
6.11773
6.30922
6.50152
6.69527
6.89112
7.08972
7.2917
7.49772
7.70843
7.92439
8.14617
8.37421
8.60887
8.85034
9.09872
9.35386
9.61551
9.88325
10.1566
10.4348
10.7178
11.0014
11.2979
11.5418
-8.07049
-8.07537
-8.08351
-8.09019
-8.09482
-8.09821
-8.10083
-8.10291
-8.10468
-8.10632
-8.10801
-8.10988
-8.11203
-8.11455
-8.1175
-8.12094
-8.12492
-8.12948
-8.13465
-8.14046
-8.14695
-8.15412
-8.162
-8.17061
-8.17995
-8.19004
-8.20086
-8.21244
-8.22476
-8.23783
-8.25162
-8.26615
-8.2814
-8.29735
-8.314
-8.33133
-8.34933
-8.36798
-8.38725
-8.40714
-8.42761
-8.44865
-8.47023
-8.49233
-8.5149
-8.53793
-8.56137
-8.58519
-8.60934
-8.63378
-8.65846
-8.68333
-8.70832
-8.73338
-8.75842
-8.78339
-8.80819
-8.83274
-8.85694
-8.8807
-8.90391
-8.92645
-8.94821
-8.96904
-8.98883
-9.00742
-9.02466
-9.04039
-9.05445
-9.06667
-9.07687
-9.08485
-9.09042
-9.09338
-9.09353
-9.09064
-9.08451
-9.07491
-9.0616
-9.04436
-9.02296
-8.99714
-8.96669
-8.93134
-8.89087
-8.84502
-8.79357
-8.73625
-8.67285
-8.60314
-8.52691
-8.44393
-8.35399
-8.25688
-8.15241
-8.0404
-7.92069
-7.79315
-7.65768
-7.51417
-7.36254
-7.20274
-7.03474
-6.85854
-6.67416
-6.48165
-6.28111
-6.07267
-5.85648
-5.63274
-5.40168
-5.16357
-4.91873
-4.6675
-4.41024
-4.14739
-3.87938
-3.60668
-3.32981
-3.04929
-2.76566
-2.47949
-2.19136
-1.90185
-1.61155
-1.32102
-1.03081
-0.74143
-0.453408
-0.167226
0.116661
0.397838
0.675897
0.950489
1.22127
1.48797
1.75032
2.00814
2.26127
2.50962
2.7531
2.99172
3.22547
3.45443
3.67868
3.89835
4.11361
4.32468
4.53183
4.73537
4.93566
5.13307
5.32805
5.52101
5.71248
5.90293
6.09296
6.28312
6.47401
6.66625
6.86051
7.05744
7.2577
7.46195
7.67086
7.88501
8.10497
8.33123
8.56414
8.80395
9.05073
9.30442
9.56476
9.83138
10.1037
10.3809
10.6625
10.944
11.237
11.4728
-8.06444
-8.06988
-8.07895
-8.08666
-8.09221
-8.0964
-8.09974
-8.10249
-8.10487
-8.10709
-8.10933
-8.11171
-8.11434
-8.11732
-8.12072
-8.1246
-8.12899
-8.13395
-8.13949
-8.14567
-8.15248
-8.15997
-8.16813
-8.17699
-8.18655
-8.19682
-8.2078
-8.2195
-8.23191
-8.24503
-8.25886
-8.27339
-8.28861
-8.30452
-8.32111
-8.33836
-8.35626
-8.3748
-8.39396
-8.41373
-8.43408
-8.455
-8.47645
-8.49843
-8.52089
-8.54382
-8.56717
-8.59092
-8.61501
-8.6394
-8.66406
-8.68891
-8.71391
-8.73899
-8.76408
-8.78911
-8.81399
-8.83864
-8.86297
-8.88687
-8.91023
-8.93295
-8.9549
-8.97594
-8.99595
-9.01478
-9.03228
-9.04829
-9.06264
-9.07515
-9.08566
-9.09397
-9.09987
-9.10319
-9.10369
-9.10118
-9.09543
-9.08622
-9.07331
-9.05648
-9.03549
-9.0101
-8.98007
-8.94515
-8.90512
-8.85972
-8.8087
-8.75183
-8.68887
-8.6196
-8.54381
-8.46126
-8.37174
-8.27503
-8.17095
-8.05933
-7.93999
-7.81281
-7.67767
-7.53445
-7.38309
-7.22351
-7.0557
-6.87964
-6.69536
-6.50291
-6.30238
-6.09389
-5.87761
-5.65372
-5.42247
-5.18411
-4.93897
-4.68738
-4.42972
-4.16642
-3.89792
-3.6247
-3.34727
-3.06616
-2.78193
-2.49514
-2.20639
-1.91626
-1.62534
-1.33422
-1.04346
-0.753573
-0.465072
-0.178448
0.105844
0.387381
0.66576
0.940614
1.21161
1.47845
1.74091
1.99877
2.25189
2.50017
2.74352
2.98194
3.21544
3.44407
3.66791
3.88708
4.10175
4.31214
4.51853
4.72122
4.92057
5.11696
5.3108
5.50255
5.69269
5.88173
6.07023
6.25878
6.44797
6.63844
6.83086
7.0259
7.22424
7.42655
7.6335
7.84574
8.06383
8.2883
8.51952
8.75778
9.00317
9.25565
9.51497
9.78075
10.0524
10.3287
10.6093
10.8891
11.1793
11.409
-8.06159
-8.06726
-8.07673
-8.08508
-8.0913
-8.09614
-8.10009
-8.10342
-8.10636
-8.10911
-8.11185
-8.11471
-8.11781
-8.12123
-8.12504
-8.12931
-8.13408
-8.1394
-8.14528
-8.15177
-8.15888
-8.16663
-8.17504
-8.18412
-8.19387
-8.2043
-8.21543
-8.22724
-8.23974
-8.25294
-8.26681
-8.28137
-8.29661
-8.31252
-8.32908
-8.34631
-8.36417
-8.38267
-8.40178
-8.4215
-8.4418
-8.46267
-8.48408
-8.50603
-8.52847
-8.55138
-8.57473
-8.59848
-8.6226
-8.64704
-8.67174
-8.69667
-8.72176
-8.74695
-8.77216
-8.79732
-8.82236
-8.84718
-8.87169
-8.89579
-8.91936
-8.94231
-8.96449
-8.98579
-9.00605
-9.02515
-9.04293
-9.05923
-9.07387
-9.08669
-9.0975
-9.10612
-9.11235
-9.11598
-9.11681
-9.11462
-9.1092
-9.10031
-9.08774
-9.07123
-9.05057
-9.02551
-8.9958
-8.96121
-8.9215
-8.8764
-8.8257
-8.76913
-8.70646
-8.63747
-8.56194
-8.47965
-8.39036
-8.29387
-8.18999
-8.07854
-7.95936
-7.83231
-7.69725
-7.5541
-7.40276
-7.24317
-7.07529
-6.89913
-6.71469
-6.52203
-6.32125
-6.11245
-5.89581
-5.67151
-5.43979
-5.20092
-4.95522
-4.70303
-4.44473
-4.18075
-3.91154
-3.63758
-3.35939
-3.07751
-2.7925
-2.50495
-2.21545
-1.92459
-1.63297
-1.34119
-1.04984
-0.759433
-0.470463
-0.183431
0.101218
0.383046
0.661655
0.936652
1.20773
1.47457
1.73698
1.99473
2.24768
2.49571
2.73876
2.97679
3.20984
3.43791
3.66111
3.87954
4.09338
4.30287
4.50827
4.7099
4.90808
5.10323
5.29573
5.48605
5.67466
5.86211
6.04892
6.23571
6.42307
6.61165
6.80213
6.99519
7.19152
7.39183
7.59681
7.80712
8.02336
8.24608
8.4757
8.71252
8.95668
9.20814
9.46666
9.73181
10.0029
10.2787
10.5585
10.8368
11.1249
11.3504
-8.06191
-8.06753
-8.07695
-8.08554
-8.09216
-8.09743
-8.10183
-8.10562
-8.10901
-8.11221
-8.11537
-8.11865
-8.12214
-8.12593
-8.1301
-8.13471
-8.13979
-8.14541
-8.15157
-8.15832
-8.16567
-8.17365
-8.18226
-8.19152
-8.20143
-8.21201
-8.22326
-8.23518
-8.24777
-8.26104
-8.27498
-8.28959
-8.30486
-8.3208
-8.3374
-8.35464
-8.37252
-8.39103
-8.41015
-8.42988
-8.4502
-8.4711
-8.49254
-8.51452
-8.53701
-8.55999
-8.58341
-8.60725
-8.63147
-8.65602
-8.68086
-8.70593
-8.73118
-8.75653
-8.78193
-8.80729
-8.83253
-8.85757
-8.88231
-8.90665
-8.93047
-8.95367
-8.97611
-8.99768
-9.01822
-9.0376
-9.05565
-9.07222
-9.08715
-9.10025
-9.11134
-9.12023
-9.12673
-9.13064
-9.13173
-9.12981
-9.12464
-9.116
-9.10367
-9.08741
-9.06698
-9.04214
-9.01265
-8.97827
-8.93875
-8.89384
-8.84331
-8.7869
-8.72438
-8.65553
-8.58012
-8.49791
-8.4087
-8.31226
-8.2084
-8.09695
-7.97774
-7.85063
-7.71548
-7.57219
-7.42068
-7.26086
-7.09272
-6.91624
-6.73144
-6.53837
-6.33712
-6.12781
-5.9106
-5.68569
-5.4533
-5.21372
-4.96727
-4.71429
-4.45517
-4.19033
-3.92025
-3.6454
-3.36632
-3.08354
-2.79765
-2.50924
-2.21891
-1.92727
-1.63491
-1.34246
-1.05052
-0.759611
-0.470221
-0.182843
0.102079
0.38412
0.662858
0.937901
1.20893
1.47565
1.73785
1.99532
2.24792
2.49551
2.73805
2.97549
3.20784
3.43513
3.65744
3.8749
4.08768
4.29604
4.50022
4.70055
4.89737
5.09106
5.28203
5.47075
5.6577
5.84339
6.02841
6.21332
6.39876
6.58538
6.77387
6.96491
7.15923
7.35754
7.56057
7.769
7.98347
8.20453
8.43267
8.66819
8.91128
9.16188
9.41978
9.68448
9.95523
10.2306
10.5099
10.787
11.0736
11.2963
-8.06506
-8.07042
-8.07943
-8.08791
-8.09465
-8.10013
-8.1048
-8.10888
-8.11259
-8.11612
-8.11961
-8.1232
-8.127
-8.13109
-8.13554
-8.14041
-8.14575
-8.15159
-8.15798
-8.16493
-8.17247
-8.18062
-8.18939
-8.1988
-8.20884
-8.21955
-8.2309
-8.24292
-8.2556
-8.26895
-8.28296
-8.29763
-8.31297
-8.32897
-8.34562
-8.36292
-8.38085
-8.39943
-8.41862
-8.43842
-8.45881
-8.47979
-8.50133
-8.52342
-8.54602
-8.56912
-8.59268
-8.61667
-8.64105
-8.66578
-8.6908
-8.71607
-8.74152
-8.76709
-8.79271
-8.81831
-8.84379
-8.86907
-8.89406
-8.91865
-8.94273
-8.96619
-8.98889
-9.01071
-9.0315
-9.05113
-9.06943
-9.08625
-9.10141
-9.11474
-9.12605
-9.13515
-9.14186
-9.14595
-9.14723
-9.14548
-9.14048
-9.132
-9.11981
-9.10368
-9.08337
-9.05864
-9.02925
-8.99495
-8.95551
-8.91066
-8.86018
-8.8038
-8.74129
-8.67243
-8.597
-8.51475
-8.42546
-8.32892
-8.22495
-8.11334
-7.99395
-7.86662
-7.73123
-7.58765
-7.4358
-7.27561
-7.10704
-6.93009
-6.74477
-6.55113
-6.34926
-6.13928
-5.92135
-5.69566
-5.46247
-5.22204
-4.9747
-4.72081
-4.46075
-4.19496
-3.9239
-3.64807
-3.36802
-3.08428
-2.79746
-2.50816
-2.21698
-1.92453
-1.63143
-1.33832
-1.0458
-0.7544
-0.464628
-0.176962
0.10815
0.390299
0.669043
0.944002
1.21483
1.48128
1.74309
2.00011
2.25213
2.49908
2.74086
2.97746
3.20888
3.43513
3.65631
3.87255
4.08404
4.29102
4.49377
4.69259
4.88784
5.07988
5.26916
5.45611
5.64124
5.82507
6.00817
6.19113
6.37458
6.55919
6.74566
6.93469
7.12702
7.32339
7.52454
7.73118
7.94398
8.16354
8.39034
8.62474
8.86692
9.11687
9.37434
9.63879
9.90939
10.1846
10.4635
10.7399
11.0255
11.2465
-8.07054
-8.07548
-8.08382
-8.0919
-8.0985
-8.10398
-8.10872
-8.11294
-8.11682
-8.12054
-8.12424
-8.12805
-8.13206
-8.13636
-8.141
-8.14607
-8.15159
-8.1576
-8.16415
-8.17125
-8.17893
-8.18721
-8.1961
-8.20562
-8.21577
-8.22657
-8.23801
-8.25012
-8.26289
-8.27632
-8.29041
-8.30517
-8.32058
-8.33666
-8.3534
-8.37078
-8.38881
-8.40748
-8.42677
-8.44669
-8.46721
-8.48832
-8.51001
-8.53225
-8.55502
-8.57829
-8.60204
-8.62623
-8.65081
-8.67575
-8.70099
-8.72648
-8.75216
-8.77796
-8.80382
-8.82965
-8.85537
-8.88089
-8.90611
-8.93093
-8.95524
-8.97892
-9.00183
-9.02386
-9.04485
-9.06467
-9.08315
-9.10013
-9.11544
-9.12891
-9.14035
-9.14957
-9.15637
-9.16056
-9.16191
-9.16022
-9.15527
-9.14682
-9.13465
-9.11853
-9.09822
-9.07348
-9.04407
-9.00973
-8.97024
-8.92533
-8.87476
-8.81829
-8.75567
-8.68668
-8.61109
-8.52867
-8.43919
-8.34244
-8.23821
-8.12634
-8.00665
-7.87898
-7.74322
-7.59923
-7.44692
-7.28624
-7.11714
-6.93961
-6.75366
-6.55934
-6.35675
-6.146
-5.92725
-5.70071
-5.46663
-5.22528
-4.97699
-4.72212
-4.46106
-4.19426
-3.92219
-3.64535
-3.36428
-3.07957
-2.79179
-2.50156
-2.20951
-1.91626
-1.62245
-1.32871
-1.03565
-0.743808
-0.453728
-0.165888
0.119282
0.401376
0.679964
0.954653
1.22511
1.49106
1.75229
2.00861
2.25984
2.50591
2.74672
2.98225
3.21249
3.43748
3.65731
3.87211
4.0821
4.28751
4.48862
4.68574
4.87923
5.06947
5.25689
5.44194
5.62512
5.80697
5.98806
6.16899
6.35041
6.53298
6.71741
6.90444
7.09481
7.28929
7.48864
7.6936
7.90485
8.12303
8.34865
8.58209
8.82355
9.07302
9.33023
9.59461
9.86523
10.1405
10.4192
10.6953
10.9802
11.2007
-8.07779
-8.0822
-8.08969
-8.09714
-8.10338
-8.10866
-8.11329
-8.11748
-8.12139
-8.12517
-8.12896
-8.13287
-8.13699
-8.14141
-8.14618
-8.15135
-8.15698
-8.16311
-8.16976
-8.17696
-8.18473
-8.1931
-8.20207
-8.21167
-8.22191
-8.23279
-8.24432
-8.25651
-8.26936
-8.28288
-8.29706
-8.31191
-8.32742
-8.34359
-8.36042
-8.37791
-8.39605
-8.41484
-8.43426
-8.45433
-8.475
-8.49629
-8.51815
-8.54058
-8.56354
-8.58702
-8.61097
-8.63536
-8.66015
-8.68531
-8.71076
-8.73647
-8.76236
-8.78837
-8.81443
-8.84045
-8.86636
-8.89207
-8.91746
-8.94244
-8.9669
-8.99072
-9.01376
-9.03589
-9.05698
-9.07687
-9.09541
-9.11244
-9.12778
-9.14126
-9.1527
-9.1619
-9.16867
-9.17281
-9.1741
-9.17234
-9.16729
-9.15875
-9.14647
-9.13023
-9.10979
-9.0849
-9.05533
-9.02084
-8.98116
-8.93607
-8.88531
-8.82862
-8.76578
-8.69655
-8.62071
-8.53803
-8.44825
-8.35119
-8.24663
-8.1344
-8.01432
-7.88624
-7.75002
-7.60556
-7.45274
-7.29151
-7.12182
-6.94366
-6.75703
-6.562
-6.35865
-6.1471
-5.92751
-5.70008
-5.46507
-5.22277
-4.97349
-4.71761
-4.45554
-4.18771
-3.91461
-3.63675
-3.35468
-3.06898
-2.78026
-2.48915
-2.19627
-1.90229
-1.60784
-1.31357
-1.02006
-0.727908
-0.437668
-0.149824
0.135217
0.417054
0.695287
0.969494
1.23936
1.50461
1.76504
2.02042
2.27065
2.5156
2.75521
2.98944
3.21828
3.44178
3.66003
3.87319
4.08147
4.28512
4.48441
4.67966
4.87123
5.05952
5.24494
5.42797
5.60911
5.7889
5.96792
6.14678
6.32614
6.50667
6.68909
6.87416
7.06264
7.25532
7.45297
7.65636
7.86622
8.08318
8.3078
8.54046
8.78139
9.03056
9.28771
9.55219
9.82303
10.0985
10.3774
10.6533
10.9378
11.1587
-8.08624
-8.09006
-8.09661
-8.10326
-8.10896
-8.11386
-8.11823
-8.12223
-8.12601
-8.12972
-8.13347
-8.13737
-8.1415
-8.14593
-8.15073
-8.15595
-8.16163
-8.16781
-8.17451
-8.18177
-8.1896
-8.19803
-8.20708
-8.21674
-8.22705
-8.238
-8.2496
-8.26186
-8.27478
-8.28837
-8.30263
-8.31757
-8.33316
-8.34943
-8.36637
-8.38397
-8.40222
-8.42115
-8.44072
-8.46094
-8.48178
-8.50324
-8.52528
-8.54789
-8.57103
-8.59468
-8.61881
-8.64338
-8.66834
-8.69366
-8.71927
-8.74513
-8.77116
-8.79729
-8.82346
-8.84959
-8.87558
-8.90134
-8.92679
-8.9518
-8.97627
-9.00008
-9.0231
-9.04519
-9.06621
-9.08602
-9.10446
-9.12137
-9.13657
-9.1499
-9.16117
-9.17019
-9.17677
-9.1807
-9.18177
-9.17978
-9.1745
-9.16571
-9.15319
-9.1367
-9.116
-9.09086
-9.06103
-9.02627
-8.98633
-8.94096
-8.88991
-8.83294
-8.7698
-8.70027
-8.62413
-8.54112
-8.45101
-8.35359
-8.24867
-8.13604
-8.01555
-7.88703
-7.75034
-7.60537
-7.45203
-7.29024
-7.11995
-6.94114
-6.75384
-6.55809
-6.35397
-6.14161
-5.92118
-5.69287
-5.45695
-5.2137
-4.96346
-4.7066
-4.44354
-4.17472
-3.90064
-3.62181
-3.3388
-3.0522
-2.76263
-2.47073
-2.17715
-1.88256
-1.58761
-1.29291
-0.999112
-0.706825
-0.416618
-0.128964
0.155733
0.437096
0.714736
0.988243
1.25729
1.5216
1.78098
2.03521
2.28419
2.52779
2.76596
2.99866
3.22587
3.44767
3.66414
3.87547
4.08186
4.28357
4.48087
4.6741
4.86362
5.04982
5.23315
5.41407
5.5931
5.77078
5.94769
6.12446
6.30176
6.48027
6.66073
6.8439
7.03057
7.22154
7.41762
7.61959
7.8282
8.04411
8.26789
8.49994
8.74051
8.98956
9.24682
9.51157
9.78277
10.0586
10.3378
10.6139
10.8984
11.1203
-8.09541
-8.09864
-8.10418
-8.10994
-8.11496
-8.11932
-8.12325
-8.1269
-8.13041
-8.1339
-8.13748
-8.14125
-8.14528
-8.14965
-8.15441
-8.15961
-8.16528
-8.17146
-8.17818
-8.18546
-8.19333
-8.20179
-8.21086
-8.22057
-8.23091
-8.2419
-8.25355
-8.26585
-8.27883
-8.29248
-8.3068
-8.3218
-8.33747
-8.35383
-8.37086
-8.38856
-8.40693
-8.42597
-8.44566
-8.466
-8.48696
-8.50853
-8.53068
-8.55339
-8.57663
-8.60037
-8.62458
-8.64921
-8.67423
-8.69958
-8.72522
-8.75108
-8.77709
-8.8032
-8.82931
-8.85535
-8.88124
-8.90689
-8.93219
-8.95704
-8.98133
-9.00493
-9.02772
-9.04957
-9.07033
-9.08986
-9.10801
-9.12461
-9.13949
-9.15249
-9.16343
-9.1721
-9.17833
-9.1819
-9.18262
-9.18027
-9.17463
-9.16549
-9.15261
-9.13576
-9.11472
-9.08924
-9.05907
-9.02397
-8.9837
-8.938
-8.88662
-8.82933
-8.76586
-8.69602
-8.61955
-8.5362
-8.44576
-8.34798
-8.24269
-8.12968
-8.00879
-7.87984
-7.74271
-7.59727
-7.44343
-7.2811
-7.11025
-6.93084
-6.7429
-6.54648
-6.34165
-6.12854
-5.90732
-5.67819
-5.44143
-5.19731
-4.94619
-4.68844
-4.42448
-4.15477
-3.87982
-3.60015
-3.31633
-3.02897
-2.73869
-2.44617
-2.15206
-1.85703
-1.56172
-1.2668
-0.972917
-0.680718
-0.390768
-0.103533
0.18058
0.461219
0.738005
1.01056
1.27853
1.54166
1.79972
2.05256
2.30003
2.54206
2.77855
3.00948
3.23485
3.45473
3.66924
3.87855
4.08288
4.28248
4.47765
4.66873
4.85609
5.04012
5.22128
5.40004
5.57691
5.75246
5.92727
6.10199
6.27727
6.45383
6.6324
6.81379
6.99877
7.18819
7.38285
7.58356
7.79109
8.00614
8.22927
8.46092
8.7013
8.95041
9.20792
9.4731
9.7448
10.0212
10.3008
10.5774
10.8619
11.0856
-8.10493
-8.10759
-8.11216
-8.11696
-8.12117
-8.12485
-8.12817
-8.1313
-8.13437
-8.13748
-8.14076
-8.14428
-8.14811
-8.15233
-8.15697
-8.16208
-8.16769
-8.17382
-8.18051
-8.18777
-8.19562
-8.20407
-8.21314
-8.22284
-8.23317
-8.24417
-8.25581
-8.26813
-8.28111
-8.29477
-8.30911
-8.32413
-8.33982
-8.3562
-8.37325
-8.39098
-8.40938
-8.42844
-8.44814
-8.46848
-8.48942
-8.51096
-8.53306
-8.55571
-8.57887
-8.60251
-8.6266
-8.65109
-8.67595
-8.70113
-8.72657
-8.75221
-8.77798
-8.80381
-8.82962
-8.85534
-8.88089
-8.90617
-8.93109
-8.95554
-8.9794
-9.00256
-9.0249
-9.04627
-9.06656
-9.0856
-9.10326
-9.11936
-9.13375
-9.14625
-9.15669
-9.16488
-9.17062
-9.17372
-9.17396
-9.17115
-9.16507
-9.15549
-9.14219
-9.12494
-9.1035
-9.07764
-9.0471
-9.01165
-8.97103
-8.925
-8.8733
-8.8157
-8.75194
-8.6818
-8.60503
-8.5214
-8.43065
-8.33257
-8.22696
-8.11363
-7.9924
-7.8631
-7.7256
-7.57976
-7.4255
-7.26273
-7.0914
-6.9115
-6.72302
-6.52603
-6.3206
-6.10685
-5.88497
-5.65516
-5.41768