/*--------------------------------*- C++ -*----------------------------------*\
| =========                 |                                                 |
| \\      /  F ield         | OpenFOAM: The Open Source CFD Toolbox           |
|  \\    /   O peration     | Version:  4.1                                   |
|   \\  /    A nd           | Web:      www.OpenFOAM.org                      |
|    \\/     M anipulation  |                                                 |
\*---------------------------------------------------------------------------*/
FoamFile
{
    version     2.0;
    format      ascii;
    class       surfaceScalarField;
    location    "200";
    object      phi;
}
// * * * * * * * * * * * * * * * * * * * * * * * * * * * * * * * * * * * * * //

dimensions      [0 3 -1 0 0 0 0];

internalField   nonuniform List<scalar> 
24170
(
3.05907e-06
7.48195e-08
2.95467e-06
1.044e-07
2.85726e-06
9.74063e-08
2.76453e-06
9.27231e-08
2.67733e-06
8.71951e-08
2.59901e-06
7.83131e-08
2.53067e-06
6.83369e-08
2.47157e-06
5.90994e-08
2.42052e-06
5.10487e-08
2.37638e-06
4.41327e-08
2.33817e-06
3.82088e-08
2.30504e-06
3.31262e-08
2.27631e-06
2.87258e-08
2.25143e-06
2.48771e-08
2.2301e-06
2.13232e-08
2.21188e-06
1.82171e-08
2.1965e-06
1.53758e-08
1.12588e-08
2.18524e-06
3.51041e-06
2.08502e-08
3.52828e-06
8.65261e-08
3.53459e-06
9.10886e-08
3.53271e-06
9.46027e-08
3.52364e-06
9.62624e-08
3.50882e-06
9.31269e-08
3.48962e-06
8.75281e-08
3.46733e-06
8.13926e-08
3.44307e-06
7.5302e-08
3.41778e-06
6.94166e-08
3.39218e-06
6.38073e-08
3.36678e-06
5.85237e-08
3.34196e-06
5.35437e-08
3.31799e-06
4.88433e-08
3.29507e-06
4.42407e-08
3.27342e-06
3.98612e-08
3.25395e-06
3.48482e-08
2.79496e-08
3.23726e-06
3.81757e-06
1.54717e-08
3.83013e-06
7.39678e-08
3.8403e-06
8.09127e-08
3.85099e-06
8.39065e-08
3.86076e-06
8.64945e-08
3.86838e-06
8.55066e-08
3.87372e-06
8.21783e-08
3.87702e-06
7.80917e-08
3.87853e-06
7.37899e-08
3.87853e-06
6.94117e-08
3.8773e-06
6.50391e-08
3.87508e-06
6.07432e-08
3.87208e-06
5.65344e-08
3.86853e-06
5.23913e-08
3.86458e-06
4.81961e-08
3.86058e-06
4.38561e-08
3.85659e-06
3.88385e-08
3.25691e-08
3.85197e-06
4.20345e-06
1.65772e-08
4.21507e-06
6.23469e-08
4.22329e-06
7.26901e-08
4.23089e-06
7.63057e-08
4.2381e-06
7.92755e-08
4.24433e-06
7.92783e-08
4.24965e-06
7.685e-08
4.25431e-06
7.34302e-08
4.25841e-06
6.96851e-08
4.26202e-06
6.58009e-08
4.26519e-06
6.18645e-08
4.26799e-06
5.79428e-08
4.27048e-06
5.40494e-08
4.27271e-06
5.01559e-08
4.27474e-06
4.61615e-08
4.27665e-06
4.19415e-08
4.27825e-06
3.72371e-08
3.17767e-08
4.27904e-06
4.63768e-06
1.62084e-08
4.64712e-06
5.29031e-08
4.65389e-06
6.59137e-08
4.65984e-06
7.03607e-08
4.66578e-06
7.33306e-08
4.67128e-06
7.37716e-08
4.67625e-06
7.18824e-08
4.68079e-06
6.88906e-08
4.68497e-06
6.54971e-08
4.68885e-06
6.19177e-08
4.69247e-06
5.8241e-08
4.69588e-06
5.45318e-08
4.69912e-06
5.08094e-08
4.70223e-06
4.70498e-08
4.70521e-06
4.31762e-08
4.70805e-06
3.90951e-08
4.71061e-06
3.46764e-08
2.98219e-08
4.71257e-06
5.11602e-06
1.478e-08
5.1236e-06
4.53192e-08
5.13001e-06
5.95025e-08
5.13574e-06
6.46365e-08
5.14152e-06
6.75487e-08
5.147e-06
6.82848e-08
5.152e-06
6.68829e-08
5.15657e-06
6.43141e-08
5.16081e-06
6.12563e-08
5.16477e-06
5.79527e-08
5.16851e-06
5.45031e-08
5.17206e-06
5.09756e-08
5.17547e-06
4.74001e-08
5.17875e-06
4.37643e-08
5.18191e-06
4.00213e-08
5.18489e-06
3.61134e-08
5.18757e-06
3.19879e-08
2.76426e-08
5.18975e-06
5.64261e-06
1.31779e-08
5.64907e-06
3.88601e-08
5.65559e-06
5.29789e-08
5.6615e-06
5.87271e-08
5.66734e-06
6.17004e-08
5.67294e-06
6.26904e-08
5.67808e-06
6.17319e-08
5.68283e-06
5.957e-08
5.68724e-06
5.68382e-08
5.69139e-06
5.38035e-08
5.69531e-06
5.058e-08
5.69905e-06
4.72408e-08
5.70262e-06
4.38272e-08
5.70604e-06
4.03423e-08
5.70929e-06
3.67671e-08
5.71232e-06
3.30773e-08
5.71504e-06
2.92711e-08
2.53948e-08
5.71729e-06
4.40729e-06
1.20024e-08
4.41138e-06
3.47621e-08
4.41606e-06
4.8295e-08
4.42044e-06
5.43469e-08
4.42471e-06
5.74321e-08
4.42883e-06
5.85647e-08
4.43269e-06
5.78702e-08
4.43627e-06
5.5986e-08
4.43962e-06
5.34909e-08
4.44277e-06
5.06549e-08
4.44574e-06
4.76026e-08
4.44857e-06
4.44129e-08
4.45126e-06
4.11346e-08
4.45382e-06
3.77821e-08
4.45623e-06
3.43538e-08
4.45846e-06
3.08461e-08
4.46045e-06
2.7279e-08
2.37114e-08
4.46213e-06
5.1411e-06
1.07629e-08
5.14519e-06
3.06684e-08
5.15012e-06
4.33641e-08
5.1549e-06
4.95662e-08
5.1596e-06
5.27239e-08
5.16419e-06
5.39718e-08
5.16853e-06
5.35276e-08
5.17259e-06
5.19245e-08
5.1764e-06
4.96801e-08
5.17999e-06
4.70637e-08
5.18339e-06
4.4207e-08
5.1866e-06
4.11946e-08
5.18965e-06
3.80825e-08
5.19254e-06
3.48972e-08
5.19524e-06
3.16529e-08
5.19772e-06
2.83634e-08
5.19993e-06
2.50619e-08
2.1813e-08
5.20183e-06
5.99709e-06
9.46135e-09
6.00113e-06
2.66335e-08
6.00623e-06
3.82611e-08
6.01138e-06
4.44164e-08
6.01652e-06
4.75805e-08
6.02159e-06
4.89011e-08
6.02643e-06
4.86785e-08
6.03101e-06
4.73487e-08
6.03532e-06
4.53617e-08
6.0394e-06
4.29811e-08
6.04326e-06
4.0344e-08
6.04692e-06
3.75386e-08
6.05037e-06
3.46273e-08
6.05362e-06
3.16477e-08
6.05665e-06
2.86267e-08
6.05942e-06
2.55915e-08
6.0619e-06
2.25811e-08
1.96584e-08
6.06405e-06
6.99561e-06
8.11996e-09
6.99954e-06
2.27014e-08
7.00475e-06
3.30484e-08
7.01023e-06
3.89355e-08
7.01578e-06
4.20263e-08
7.02131e-06
4.33663e-08
7.02667e-06
4.33188e-08
7.03178e-06
4.22404e-08
7.03663e-06
4.05093e-08
7.04123e-06
3.83756e-08
7.04559e-06
3.59788e-08
7.04972e-06
3.34095e-08
7.05361e-06
3.07341e-08
7.05726e-06
2.79988e-08
7.06064e-06
2.52397e-08
7.06374e-06
2.24916e-08
7.06653e-06
1.9794e-08
1.72047e-08
7.06898e-06
8.16036e-06
6.77118e-09
8.16418e-06
1.88856e-08
8.16944e-06
2.77876e-08
8.17519e-06
3.31777e-08
8.18112e-06
3.60908e-08
8.1871e-06
3.7387e-08
8.19296e-06
3.74551e-08
8.19861e-06
3.65938e-08
8.20401e-06
3.51098e-08
8.20915e-06
3.32297e-08
8.21403e-06
3.10913e-08
8.21866e-06
2.87853e-08
8.22301e-06
2.63792e-08
8.22708e-06
2.39244e-08
8.23086e-06
2.14617e-08
8.23432e-06
1.90287e-08
8.23745e-06
1.66621e-08
1.44117e-08
8.24024e-06
9.51906e-06
5.43977e-09
9.52276e-06
1.51855e-08
9.52801e-06
2.25299e-08
9.53398e-06
2.72031e-08
9.54027e-06
2.98064e-08
9.54667e-06
3.09823e-08
9.55302e-06
3.10981e-08
9.55921e-06
3.0408e-08
9.56516e-06
2.91539e-08
9.57086e-06
2.75298e-08
9.57628e-06
2.5665e-08
9.58142e-06
2.36467e-08
9.58626e-06
2.15411e-08
9.59078e-06
1.93992e-08
9.59498e-06
1.7263e-08
9.59884e-06
1.51685e-08
9.60235e-06
1.31476e-08
1.12414e-08
9.60552e-06
1.1104e-05
4.13895e-09
1.11076e-05
1.15887e-08
1.11128e-05
1.72996e-08
1.1119e-05
2.10616e-08
1.11256e-05
2.32049e-08
1.11324e-05
2.41674e-08
1.11392e-05
2.42559e-08
1.11459e-05
2.36816e-08
1.11525e-05
2.26304e-08
1.11587e-05
2.12579e-08
1.11647e-05
1.96771e-08
1.11704e-05
1.79672e-08
1.11758e-05
1.61881e-08
1.11808e-05
1.43874e-08
1.11854e-05
1.26029e-08
1.11897e-05
1.08669e-08
1.11937e-05
9.20436e-09
7.64923e-09
1.11973e-05
1.29529e-05
2.86819e-09
1.29564e-05
8.06536e-09
1.29616e-05
1.20836e-08
1.29679e-05
1.4771e-08
1.29748e-05
1.62996e-08
1.2982e-05
1.69417e-08
1.29894e-05
1.69216e-08
1.29967e-05
1.64013e-08
1.30038e-05
1.55168e-08
1.30106e-05
1.43836e-08
1.30172e-05
1.30909e-08
1.30235e-05
1.17038e-08
1.30294e-05
1.0272e-08
1.3035e-05
8.83466e-09
1.30401e-05
7.42293e-09
1.30449e-05
6.06224e-09
1.30494e-05
4.77087e-09
3.575e-09
1.30534e-05
1.51097e-05
1.61138e-09
1.51132e-05
4.55687e-09
1.51185e-05
6.81656e-09
1.5125e-05
8.28848e-09
1.51322e-05
9.05409e-09
1.51399e-05
9.26137e-09
1.51477e-05
9.0474e-09
1.51556e-05
8.51761e-09
1.51634e-05
7.75932e-09
1.51709e-05
6.84724e-09
1.51782e-05
5.8411e-09
1.51851e-05
4.7862e-09
1.51916e-05
3.71722e-09
1.51978e-05
2.66145e-09
1.52036e-05
1.64038e-09
1.5209e-05
6.71067e-10
1.5214e-05
-2.35293e-10
-1.05985e-09
1.52186e-05
1.76257e-05
3.34047e-10
1.76293e-05
9.55542e-10
1.76348e-05
1.35336e-09
1.76416e-05
1.46791e-09
1.76493e-05
1.32828e-09
1.76576e-05
9.88123e-10
1.76661e-05
4.97984e-10
1.76748e-05
-9.98945e-11
1.76833e-05
-7.6867e-10
1.76916e-05
-1.47588e-09
1.76996e-05
-2.19608e-09
1.77073e-05
-2.90898e-09
1.77146e-05
-3.59933e-09
1.77216e-05
-4.2545e-09
1.77281e-05
-4.86529e-09
1.77342e-05
-5.42404e-09
1.77398e-05
-5.92733e-09
-6.36334e-09
1.77451e-05
1.78274e-05
-8.63636e-10
1.78308e-05
-2.44138e-09
1.7836e-05
-3.83197e-09
1.78425e-05
-5.05283e-09
1.78499e-05
-6.10185e-09
1.78579e-05
-7.00451e-09
1.78662e-05
-7.79185e-09
1.78746e-05
-8.4831e-09
1.78829e-05
-9.08722e-09
1.7891e-05
-9.61382e-09
1.78989e-05
-1.00707e-08
1.79064e-05
-1.04649e-08
1.79136e-05
-1.07995e-08
1.79205e-05
-1.10784e-08
1.79269e-05
-1.13033e-08
1.7933e-05
-1.14768e-08
1.79386e-05
-1.16014e-08
-1.16724e-08
1.79439e-05
1.58824e-05
-1.92872e-09
1.58854e-05
-5.46166e-09
1.589e-05
-8.46141e-09
1.58959e-05
-1.08774e-08
1.59025e-05
-1.27198e-08
1.59096e-05
-1.41052e-08
1.59169e-05
-1.51484e-08
1.59244e-05
-1.59159e-08
1.59317e-05
-1.64562e-08
1.59389e-05
-1.68161e-08
1.59459e-05
-1.7037e-08
1.59526e-05
-1.71475e-08
1.59589e-05
-1.71697e-08
1.5965e-05
-1.71191e-08
1.59707e-05
-1.70093e-08
1.59761e-05
-1.6849e-08
1.59811e-05
-1.66478e-08
-1.64043e-08
1.59858e-05
1.41496e-05
-2.9176e-09
1.41525e-05
-8.2813e-09
1.41568e-05
-1.28181e-08
1.41623e-05
-1.63308e-08
1.41684e-05
-1.88469e-08
1.41749e-05
-2.06271e-08
1.41816e-05
-2.18727e-08
1.41884e-05
-2.26816e-08
1.41951e-05
-2.31361e-08
1.42016e-05
-2.33241e-08
1.42079e-05
-2.33152e-08
1.42139e-05
-2.31587e-08
1.42196e-05
-2.28904e-08
1.4225e-05
-2.25386e-08
1.42301e-05
-2.21247e-08
1.42349e-05
-2.1665e-08
1.42395e-05
-2.11716e-08
-2.0648e-08
1.42437e-05
1.26059e-05
-3.8368e-09
1.26087e-05
-1.10013e-08
1.26129e-05
-1.70918e-08
1.26182e-05
-2.15987e-08
1.2624e-05
-2.46539e-08
1.26301e-05
-2.67508e-08
1.26364e-05
-2.81467e-08
1.26427e-05
-2.89469e-08
1.26488e-05
-2.92796e-08
1.26547e-05
-2.9278e-08
1.26605e-05
-2.90366e-08
1.26659e-05
-2.86189e-08
1.26711e-05
-2.8073e-08
1.2676e-05
-2.74382e-08
1.26806e-05
-2.67429e-08
1.2685e-05
-2.60086e-08
1.2689e-05
-2.52506e-08
-2.44756e-08
1.26929e-05
1.12306e-05
-4.62376e-09
1.12333e-05
-1.36875e-08
1.12376e-05
-2.14545e-08
1.12428e-05
-2.67768e-08
1.12484e-05
-3.02032e-08
1.12542e-05
-3.25624e-08
1.12601e-05
-3.40673e-08
1.12659e-05
-3.48066e-08
1.12716e-05
-3.4978e-08
1.12771e-05
-3.47657e-08
1.12824e-05
-3.42823e-08
1.12873e-05
-3.3602e-08
1.12921e-05
-3.2785e-08
1.12965e-05
-3.1879e-08
1.13007e-05
-3.09194e-08
1.13046e-05
-2.99293e-08
1.13083e-05
-2.89267e-08
-2.79169e-08
1.13117e-05
1.00051e-05
-5.14739e-09
1.00078e-05
-1.6367e-08
1.00124e-05
-2.60548e-08
1.00175e-05
-3.19144e-08
1.00229e-05
-3.55334e-08
1.00284e-05
-3.81022e-08
1.0034e-05
-3.96559e-08
1.00395e-05
-4.02821e-08
1.00448e-05
-4.02687e-08
1.00498e-05
-3.98383e-08
1.00547e-05
-3.91106e-08
1.00592e-05
-3.81702e-08
1.00635e-05
-3.70891e-08
1.00676e-05
-3.59244e-08
1.00714e-05
-3.4715e-08
1.00749e-05
-3.34885e-08
1.00783e-05
-3.22639e-08
-3.10526e-08
1.00814e-05
8.91323e-06
-5.28278e-09
8.916e-06
-1.91331e-08
8.92077e-06
-3.08278e-08
8.92576e-06
-3.69033e-08
8.93092e-06
-4.07013e-08
8.93628e-06
-4.34585e-08
8.94158e-06
-4.49633e-08
8.94671e-06
-4.54079e-08
8.95162e-06
-4.51881e-08
8.95632e-06
-4.45381e-08
8.96078e-06
-4.3571e-08
8.96499e-06
-4.23798e-08
8.96895e-06
-4.10476e-08
8.97266e-06
-3.9639e-08
8.97614e-06
-3.8197e-08
8.9794e-06
-3.67503e-08
8.98245e-06
-3.53154e-08
-3.38898e-08
8.98529e-06
7.93997e-06
-4.5852e-09
7.94347e-06
-2.2631e-08
7.94814e-06
-3.55012e-08
7.95264e-06
-4.14051e-08
7.9576e-06
-4.56695e-08
7.96288e-06
-4.87362e-08
7.96808e-06
-5.01601e-08
7.97305e-06
-5.03872e-08
7.9778e-06
-4.99377e-08
7.98231e-06
-4.9047e-08
7.98656e-06
-4.78246e-08
7.99055e-06
-4.63738e-08
7.99429e-06
-4.47873e-08
7.99779e-06
-4.31354e-08
8.00105e-06
-4.14652e-08
8.00411e-06
-3.9808e-08
8.00698e-06
-3.81894e-08
-3.66225e-08
8.00971e-06
7.07071e-06
-9.63567e-10
7.07639e-06
-2.8313e-08
7.08146e-06
-4.0574e-08
7.08585e-06
-4.57916e-08
7.09082e-06
-5.06453e-08
7.0961e-06
-5.40136e-08
7.10128e-06
-5.53478e-08
7.10628e-06
-5.53888e-08
7.11107e-06
-5.47308e-08
7.11562e-06
-5.35943e-08
7.1199e-06
-5.21007e-08
7.12389e-06
-5.03716e-08
7.12762e-06
-4.85129e-08
7.13108e-06
-4.66003e-08
7.1343e-06
-4.46875e-08
7.1373e-06
-4.2807e-08
7.14008e-06
-4.0973e-08
-3.91414e-08
7.1426e-06
6.29323e-06
8.32083e-09
6.30157e-06
-3.66582e-08
6.30861e-06
-4.7616e-08
6.31508e-06
-5.22612e-08
6.32174e-06
-5.73017e-08
6.32803e-06
-6.03129e-08
6.33381e-06
-6.11281e-08
6.33921e-06
-6.079e-08
6.34431e-06
-5.98281e-08
6.34909e-06
-5.83787e-08
6.35355e-06
-5.65564e-08
6.35767e-06
-5.44946e-08
6.36146e-06
-5.23106e-08
6.36495e-06
-5.0083e-08
6.36813e-06
-4.7877e-08
6.37106e-06
-4.5732e-08
6.37377e-06
-4.3682e-08
-4.1744e-08
6.37637e-06
5.60762e-06
1.56018e-08
5.61538e-06
-4.44252e-08
5.62313e-06
-5.53651e-08
5.63272e-06
-6.18553e-08
5.64339e-06
-6.79704e-08
5.65354e-06
-7.0459e-08
5.66259e-06
-7.01838e-08
5.67055e-06
-6.87554e-08
5.67749e-06
-6.67602e-08
5.68343e-06
-6.43281e-08
5.68845e-06
-6.1575e-08
5.6926e-06
-5.86502e-08
5.69596e-06
-5.5669e-08
5.69859e-06
-5.27179e-08
5.70058e-06
-4.98641e-08
5.70202e-06
-4.71706e-08
5.70298e-06
-4.46488e-08
-4.23663e-08
5.7036e-06
5.04169e-06
-2.3783e-08
5.05635e-06
-5.90878e-08
5.06723e-06
-6.62404e-08
5.07698e-06
-7.1606e-08
5.08581e-06
-7.68111e-08
5.09241e-06
-7.70614e-08
5.0959e-06
-7.36662e-08
5.096e-06
-6.88615e-08
5.09292e-06
-6.36858e-08
5.08708e-06
-5.84884e-08
5.07896e-06
-5.34574e-08
5.06903e-06
-4.87182e-08
5.0577e-06
-4.43375e-08
5.04532e-06
-4.03436e-08
5.03221e-06
-3.67529e-08
5.01862e-06
-3.35887e-08
5.00485e-06
-3.08715e-08
-2.90792e-08
4.99156e-06
4.43277e-06
4.37368e-06
4.30744e-06
4.23583e-06
4.15902e-06
4.08196e-06
4.00829e-06
3.93943e-06
3.87574e-06
3.81726e-06
3.7638e-06
3.71508e-06
3.67074e-06
3.6304e-06
3.59364e-06
3.56006e-06
3.52918e-06
3.5001e-06
1.27524e-08
-1.28052e-08
3.04352e-08
-1.77653e-08
4.65246e-08
-1.61553e-08
5.866e-08
-1.22021e-08
6.59613e-08
-7.35772e-09
6.83159e-08
-2.41742e-09
6.61493e-08
2.11338e-09
6.02007e-08
5.88667e-09
5.13657e-08
8.78261e-09
4.03995e-08
1.09029e-08
2.7909e-08
1.24383e-08
1.42642e-08
1.35772e-08
-2.50868e-10
1.44599e-08
-1.56605e-08
1.53405e-08
-3.20409e-08
1.63299e-08
-4.94733e-08
1.73657e-08
-6.80239e-08
1.85018e-08
-8.78417e-08
1.97516e-08
-1.08998e-07
2.1108e-08
-1.31615e-07
2.2553e-08
-1.55723e-07
2.40639e-08
-1.81398e-07
2.56137e-08
-2.08615e-07
2.71753e-08
-2.37393e-07
2.87213e-08
-2.67655e-07
3.02272e-08
-2.99375e-07
3.16702e-08
-3.3244e-07
3.30345e-08
-3.66789e-07
3.4305e-08
-4.02282e-07
3.54694e-08
-4.3884e-07
3.65173e-08
-4.76304e-07
3.74446e-08
-5.14591e-07
3.82501e-08
-5.53549e-07
3.89388e-08
-5.93098e-07
3.95148e-08
-6.331e-07
3.99852e-08
-6.73488e-07
4.03551e-08
-7.14138e-07
4.06342e-08
-7.55001e-07
4.08302e-08
-7.95976e-07
4.09589e-08
-8.37047e-07
4.10364e-08
-8.78153e-07
4.10876e-08
-9.19327e-07
4.1136e-08
-9.60537e-07
4.1189e-08
-1.00181e-06
4.12367e-08
-1.04311e-06
4.12813e-08
-1.08447e-06
4.13187e-08
-1.12584e-06
4.13509e-08
-1.16725e-06
4.13751e-08
-1.20866e-06
4.13932e-08
-1.25009e-06
4.14013e-08
-1.29151e-06
4.14012e-08
-1.33293e-06
4.13891e-08
-1.37431e-06
4.13667e-08
-1.41566e-06
4.13287e-08
-1.45695e-06
4.12769e-08
-1.49818e-06
4.12065e-08
-1.5393e-06
4.11185e-08
-1.58033e-06
4.10072e-08
-1.62121e-06
4.08741e-08
-1.66194e-06
4.07133e-08
-1.70247e-06
4.05264e-08
-1.7428e-06
4.03077e-08
-1.78286e-06
4.00592e-08
-1.82266e-06
3.97751e-08
-1.86212e-06
3.94577e-08
-1.90124e-06
3.9101e-08
-1.93995e-06
3.87075e-08
-1.97824e-06
3.82711e-08
-2.01604e-06
3.77948e-08
-2.05333e-06
3.72721e-08
-2.09004e-06
3.67064e-08
-2.12615e-06
3.60914e-08
-2.16158e-06
3.54309e-08
-2.19632e-06
3.47183e-08
-2.23028e-06
3.39582e-08
-2.26344e-06
3.31438e-08
-2.29572e-06
3.22802e-08
-2.3271e-06
3.13607e-08
-2.35748e-06
3.03905e-08
-2.38685e-06
2.93628e-08
-2.41511e-06
2.82827e-08
-2.44226e-06
2.71434e-08
-2.46818e-06
2.59499e-08
-2.49287e-06
2.46951e-08
-2.51624e-06
2.33842e-08
-2.53824e-06
2.20099e-08
-2.5588e-06
2.05774e-08
-2.57786e-06
1.90793e-08
-2.59535e-06
1.75168e-08
-2.6112e-06
1.58843e-08
-2.62535e-06
1.41738e-08
-2.63771e-06
1.23776e-08
-2.6482e-06
1.0487e-08
-2.65669e-06
8.48746e-09
-2.66305e-06
6.36182e-09
-2.66717e-06
4.10289e-09
-2.66894e-06
1.761e-09
-2.66843e-06
-5.20424e-10
-2.66581e-06
-2.61534e-09
-2.66123e-06
-4.58663e-09
-2.65468e-06
-6.53582e-09
-2.64618e-06
-8.49402e-09
-2.63569e-06
-1.04664e-08
-2.62321e-06
-1.2455e-08
-2.60873e-06
-1.44553e-08
-2.59223e-06
-1.64648e-08
-2.57372e-06
-1.84773e-08
-2.55319e-06
-2.04888e-08
-2.53065e-06
-2.24929e-08
-2.50612e-06
-2.4484e-08
-2.47962e-06
-2.64562e-08
-2.45116e-06
-2.84023e-08
-2.42079e-06
-3.03167e-08
-2.38855e-06
-3.2191e-08
-2.35447e-06
-3.40204e-08
-2.31862e-06
-3.5795e-08
-2.28105e-06
-3.75109e-08
-2.24184e-06
-3.9157e-08
-2.20106e-06
-4.07305e-08
-2.1588e-06
-4.22193e-08
-2.11513e-06
-4.36215e-08
-2.07017e-06
-4.49257e-08
-2.024e-06
-4.61369e-08
-1.97673e-06
-4.72462e-08
-1.92847e-06
-4.82577e-08
-1.8793e-06
-4.91609e-08
-1.82937e-06
-4.99461e-08
-1.77877e-06
-5.06117e-08
-1.72763e-06
-5.11704e-08
-1.67606e-06
-5.16119e-08
-1.62418e-06
-5.19367e-08
-1.57209e-06
-5.21426e-08
-1.51992e-06
-5.22345e-08
-1.46778e-06
-5.22122e-08
-1.41578e-06
-5.20768e-08
-1.36405e-06
-5.18273e-08
-1.31268e-06
-5.14656e-08
-1.26179e-06
-5.09997e-08
-1.21149e-06
-5.04391e-08
-1.16186e-06
-4.97926e-08
-1.11299e-06
-4.90567e-08
-1.06495e-06
-4.82365e-08
-1.01781e-06
-4.73232e-08
-9.71644e-07
-4.63351e-08
-9.26488e-07
-4.52661e-08
-8.82401e-07
-4.41407e-08
-8.39391e-07
-4.29472e-08
-7.97519e-07
-4.17222e-08
-7.56818e-07
-4.04753e-08
-7.17308e-07
-3.92462e-08
-6.78973e-07
-3.80449e-08
-6.41772e-07
-3.68879e-08
-6.05661e-07
-3.57761e-08
-5.70573e-07
-3.47333e-08
-5.36439e-07
-3.37651e-08
-5.03158e-07
-3.28972e-08
-4.70623e-07
-3.21402e-08
-4.38699e-07
-3.15137e-08
-4.0725e-07
-3.10292e-08
-3.76094e-07
-3.0722e-08
-3.45061e-07
-3.05911e-08
-3.13943e-07
-3.06625e-08
-2.82532e-07
-3.09528e-08
-2.5057e-07
-3.14927e-08
-2.17829e-07
-3.22741e-08
-1.84052e-07
-3.33026e-08
-1.48924e-07
-3.46624e-08
-1.12152e-07
-3.6303e-08
-7.36244e-08
-3.80743e-08
-3.32481e-08
-3.99248e-08
8.75453e-09
-4.15726e-08
5.23739e-08
-4.32008e-08
9.83743e-08
-4.56198e-08
1.47561e-07
-4.88274e-08
2.00223e-07
-5.23455e-08
2.56247e-07
-5.57358e-08
3.14928e-07
-5.84398e-08
3.73921e-07
-5.87826e-08
4.28163e-07
-5.40705e-08
-1.29565e-08
4.4128e-07
1.41364e-08
-2.69926e-08
2.28994e-08
-2.65921e-08
2.60381e-08
-1.93346e-08
2.50701e-08
-1.12689e-08
2.10033e-08
-3.31966e-09
1.43682e-08
4.18837e-09
5.43167e-09
1.10242e-08
-5.74078e-09
1.7032e-08
-1.91319e-08
2.21502e-08
-3.46838e-08
2.64299e-08
-5.22768e-08
3.00102e-08
-7.17937e-08
3.30712e-08
-9.31466e-08
3.5793e-08
-1.16169e-07
3.834e-08
-1.40695e-07
4.08364e-08
-1.66709e-07
4.33573e-08
-1.94172e-07
4.59455e-08
-2.23056e-07
4.86109e-08
-2.53307e-07
5.13384e-08
-2.84875e-07
5.40979e-08
-3.17683e-07
5.68514e-08
-3.51652e-07
5.9558e-08
-3.86675e-07
6.21782e-08
-4.22653e-07
6.46754e-08
-4.59462e-07
6.70183e-08
-4.96996e-07
6.9182e-08
-5.35128e-07
7.11493e-08
-5.73753e-07
7.29105e-08
-6.1276e-07
7.44616e-08
-6.52063e-07
7.58012e-08
-6.91564e-07
7.69323e-08
-7.31196e-07
7.78648e-08
-7.70884e-07
7.86136e-08
-8.10582e-07
7.91959e-08
-8.50239e-07
7.96301e-08
-8.89834e-07
7.99349e-08
-9.29341e-07
8.01304e-08
-9.68764e-07
8.02365e-08
-1.00809e-06
8.02734e-08
-1.04733e-06
8.02615e-08
-1.08648e-06
8.02199e-08
-1.12552e-06
8.01625e-08
-1.16444e-06
8.0095e-08
-1.20324e-06
8.00174e-08
-1.2419e-06
7.99304e-08
-1.28044e-06
7.98335e-08
-1.31882e-06
7.97265e-08
-1.35707e-06
7.96077e-08
-1.39517e-06
7.94753e-08
-1.43311e-06
7.93269e-08
-1.47088e-06
7.91603e-08
-1.50848e-06
7.89722e-08
-1.54589e-06
7.87598e-08
-1.58309e-06
7.85192e-08
-1.62007e-06
7.82477e-08
-1.65682e-06
7.7941e-08
-1.6933e-06
7.75958e-08
-1.72951e-06
7.72076e-08
-1.76542e-06
7.67732e-08
-1.801e-06
7.6288e-08
-1.83623e-06
7.57493e-08
-1.87109e-06
7.51526e-08
-1.90553e-06
7.44955e-08
-1.93954e-06
7.37739e-08
-1.97308e-06
7.29855e-08
-2.00611e-06
7.21262e-08
-2.0386e-06
7.11941e-08
-2.07053e-06
7.01852e-08
-2.10184e-06
6.90979e-08
-2.1325e-06
6.79282e-08
-2.16247e-06
6.66751e-08
-2.19173e-06
6.53348e-08
-2.22021e-06
6.39066e-08
-2.24789e-06
6.23871e-08
-2.27471e-06
6.07762e-08
-2.30064e-06
5.90706e-08
-2.32564e-06
5.72705e-08
-2.34965e-06
5.5373e-08
-2.37264e-06
5.33785e-08
-2.39456e-06
5.12841e-08
-2.41536e-06
4.90902e-08
-2.43501e-06
4.6794e-08
-2.45344e-06
4.43961e-08
-2.47064e-06
4.18935e-08
-2.48653e-06
3.92873e-08
-2.50109e-06
3.65748e-08
-2.51425e-06
3.37571e-08
-2.526e-06
3.08318e-08
-2.53626e-06
2.77992e-08
-2.54501e-06
2.46562e-08
-2.55222e-06
2.13999e-08
-2.55786e-06
1.80296e-08
-2.56192e-06
1.45466e-08
-2.56439e-06
1.09591e-08
-2.56533e-06
7.2861e-09
-2.5648e-06
3.56655e-09
-2.56289e-06
-1.53705e-10
-2.55955e-06
-3.86665e-09
-2.55457e-06
-7.60427e-09
-2.54777e-06
-1.13838e-08
-2.5391e-06
-1.52031e-08
-2.52852e-06
-1.90621e-08
-2.51602e-06
-2.29575e-08
-2.50157e-06
-2.68843e-08
-2.48517e-06
-3.08347e-08
-2.46681e-06
-3.48003e-08
-2.4465e-06
-3.87708e-08
-2.42422e-06
-4.27361e-08
-2.4e-06
-4.66846e-08
-2.37385e-06
-5.06049e-08
-2.34579e-06
-5.44842e-08
-2.31585e-06
-5.83098e-08
-2.28407e-06
-6.20682e-08
-2.25048e-06
-6.57458e-08
-2.21513e-06
-6.93286e-08
-2.17809e-06
-7.2802e-08
-2.13942e-06
-7.61524e-08
-2.09918e-06
-7.93645e-08
-2.05745e-06
-8.24253e-08
-2.01432e-06
-8.53194e-08
-1.96988e-06
-8.80353e-08
-1.92423e-06
-9.05594e-08
-1.87746e-06
-9.28853e-08
-1.82969e-06
-9.50042e-08
-1.78102e-06
-9.69185e-08
-1.73156e-06
-9.86203e-08
-1.68142e-06
-1.00088e-07
-1.63072e-06
-1.01321e-07
-1.57958e-06
-1.02334e-07
-1.52809e-06
-1.03117e-07
-1.47639e-06
-1.03669e-07
-1.42457e-06
-1.0399e-07
-1.37276e-06
-1.04085e-07
-1.32105e-06
-1.03954e-07
-1.26957e-06
-1.03603e-07
-1.21841e-06
-1.03031e-07
-1.16768e-06
-1.02246e-07
-1.11748e-06
-1.01259e-07
-1.06791e-06
-1.00089e-07
-1.01904e-06
-9.8746e-08
-9.70957e-07
-9.72383e-08
-9.23724e-07
-9.55692e-08
-8.77399e-07
-9.37442e-08
-8.32033e-07
-9.17792e-08
-7.87667e-07
-8.96882e-08
-7.44328e-07
-8.74874e-08
-7.02036e-07
-8.51979e-08
-6.60812e-07
-8.28473e-08
-6.20679e-07
-8.04833e-08
-5.81634e-07
-7.81427e-08
-5.43653e-07
-7.58738e-08
-5.0668e-07
-7.36883e-08
-4.70659e-07
-7.16225e-08
-4.35508e-07
-6.96908e-08
-4.01139e-07
-6.79413e-08
-3.67432e-07
-6.63939e-08
-3.34265e-07
-6.50998e-08
-3.01479e-07
-6.40754e-08
-2.68909e-07
-6.33766e-08
-2.36355e-07
-6.30381e-08
-2.03604e-07
-6.31075e-08
-1.70418e-07
-6.3599e-08
-1.36549e-07
-6.45781e-08
-1.01703e-07
-6.60827e-08
-6.55939e-08
-6.81343e-08
-2.79236e-08
-7.07169e-08
1.14996e-08
-7.38394e-08
5.2891e-08
-7.74467e-08
9.66586e-08
-8.16082e-08
1.43276e-07
-8.63129e-08
1.93302e-07
-9.13841e-08
2.47181e-07
-9.68728e-08
3.04855e-07
-1.03101e-07
3.6614e-07
-1.09932e-07
4.3082e-07
-1.16862e-07
4.9843e-07
-1.232e-07
5.67813e-07
-1.27697e-07
6.37317e-07
-1.28183e-07
7.01175e-07
-1.17841e-07
-7.52353e-08
7.63527e-07
4.92586e-09
-3.19612e-08
2.71975e-09
-2.44332e-08
-3.29387e-09
-1.33492e-08
-1.17801e-08
-2.80561e-09
-2.21161e-08
6.99836e-09
-3.40206e-08
1.60755e-08
-4.74093e-08
2.43981e-08
-6.23182e-08
3.19258e-08
-7.8828e-08
3.86469e-08
-9.70158e-08
4.4604e-08
-1.16912e-07
4.98944e-08
-1.38504e-07
5.46508e-08
-1.61737e-07
5.90146e-08
-1.86525e-07
6.31155e-08
-2.12756e-07
6.70567e-08
-2.4032e-07
7.09083e-08
-2.69093e-07
7.47072e-08
-2.98957e-07
7.84612e-08
-3.29786e-07
8.21559e-08
-3.61465e-07
8.57632e-08
-3.93874e-07
8.92477e-08
-4.26903e-07
9.2573e-08
-4.60442e-07
9.57052e-08
-4.94397e-07
9.86158e-08
-5.28674e-07
1.01283e-07
-5.63197e-07
1.03691e-07
-5.97891e-07
1.05832e-07
-6.32697e-07
1.07703e-07
-6.67553e-07
1.09308e-07
-7.02424e-07
1.1066e-07
-7.37279e-07
1.11778e-07
-7.72108e-07
1.12681e-07
-8.06895e-07
1.13391e-07
-8.41639e-07
1.13929e-07
-8.76335e-07
1.14317e-07
-9.10988e-07
1.14578e-07
-9.45599e-07
1.14734e-07
-9.80177e-07
1.14804e-07
-1.01472e-06
1.14809e-07
-1.04923e-06
1.14765e-07
-1.08371e-06
1.14686e-07
-1.11814e-06
1.14582e-07
-1.15251e-06
1.14459e-07
-1.18682e-06
1.1432e-07
-1.22107e-06
1.14166e-07
-1.25524e-06
1.13997e-07
-1.28934e-06
1.13811e-07
-1.32335e-06
1.13607e-07
-1.35726e-06
1.13382e-07
-1.39108e-06
1.13132e-07
-1.42478e-06
1.12853e-07
-1.45836e-06
1.12542e-07
-1.4918e-06
1.12193e-07
-1.52509e-06
1.11802e-07
-1.55822e-06
1.11365e-07
-1.59116e-06
1.10874e-07
-1.6239e-06
1.10327e-07
-1.65641e-06
1.09716e-07
-1.68868e-06
1.09037e-07
-1.72069e-06
1.08285e-07
-1.7524e-06
1.07455e-07
-1.78379e-06
1.06541e-07
-1.81484e-06
1.05538e-07
-1.84552e-06
1.04444e-07
-1.87579e-06
1.03252e-07
-1.90563e-06
1.01958e-07
-1.935e-06
1.00558e-07
-1.96387e-06
9.90489e-08
-1.9922e-06
9.74258e-08
-2.01996e-06
9.56851e-08
-2.04712e-06
9.38235e-08
-2.07362e-06
9.18375e-08
-2.09945e-06
8.97244e-08
-2.12455e-06
8.7481e-08
-2.14888e-06
8.51053e-08
-2.17241e-06
8.25944e-08
-2.19509e-06
7.99468e-08
-2.21688e-06
7.71601e-08
-2.23773e-06
7.4233e-08
-2.25761e-06
7.11634e-08
-2.27647e-06
6.79504e-08
-2.29426e-06
6.45921e-08
-2.31095e-06
6.10877e-08
-2.32648e-06
5.74361e-08
-2.34083e-06
5.36369e-08
-2.35393e-06
4.96896e-08
-2.36577e-06
4.55948e-08
-2.37628e-06
4.13528e-08
-2.38543e-06
3.69647e-08
-2.39319e-06
3.24314e-08
-2.39953e-06
2.77542e-08
-2.40444e-06
2.2937e-08
-2.40788e-06
1.79879e-08
-2.40985e-06
1.29206e-08
-2.41032e-06
7.75539e-09
-2.40928e-06
2.51874e-09
-2.40667e-06
-2.77486e-09
-2.4024e-06
-8.13609e-09
-2.39642e-06
-1.35869e-08
-2.38868e-06
-1.91273e-08
-2.37913e-06
-2.47474e-08
-2.36775e-06
-3.04357e-08
-2.35452e-06
-3.61829e-08
-2.33941e-06
-4.19767e-08
-2.32243e-06
-4.78056e-08
-2.30356e-06
-5.36551e-08
-2.2828e-06
-5.95107e-08
-2.26016e-06
-6.53563e-08
-2.23565e-06
-7.11751e-08
-2.20929e-06
-7.69493e-08
-2.18109e-06
-8.26603e-08
-2.15109e-06
-8.82889e-08
-2.11932e-06
-9.38148e-08
-2.08582e-06
-9.9218e-08
-2.05065e-06
-1.04477e-07
-2.01385e-06
-1.09571e-07
-1.9755e-06
-1.14479e-07
-1.93567e-06
-1.19179e-07
-1.89442e-06
-1.23651e-07
-1.85185e-06
-1.27874e-07
-1.80803e-06
-1.31828e-07
-1.76308e-06
-1.35497e-07
-1.71709e-06
-1.38865e-07
-1.67016e-06
-1.41922e-07
-1.62241e-06
-1.44664e-07
-1.57394e-06
-1.47091e-07
-1.52486e-06
-1.49175e-07
-1.47528e-06
-1.5091e-07
-1.42531e-06
-1.52313e-07
-1.37506e-06
-1.5338e-07
-1.32464e-06
-1.54108e-07
-1.27415e-06
-1.54498e-07
-1.22371e-06
-1.54555e-07
-1.1734e-06
-1.54283e-07
-1.12335e-06
-1.53688e-07
-1.07363e-06
-1.52776e-07
-1.02435e-06
-1.51558e-07
-9.75603e-07
-1.50051e-07
-9.27466e-07
-1.48277e-07
-8.80019e-07
-1.46254e-07
-8.3333e-07
-1.43997e-07
-7.87453e-07
-1.41516e-07
-7.42439e-07
-1.38825e-07
-6.98325e-07
-1.35948e-07
-6.55143e-07
-1.32906e-07
-6.12913e-07
-1.29726e-07
-5.71642e-07
-1.26441e-07
-5.31344e-07
-1.23093e-07
-4.92018e-07
-1.19738e-07
-4.53656e-07
-1.16435e-07
-4.16216e-07
-1.13238e-07
-3.79644e-07
-1.10186e-07
-3.43864e-07
-1.0732e-07
-3.08795e-07
-1.0468e-07
-2.74329e-07
-1.02321e-07
-2.40348e-07
-1.00292e-07
-2.06708e-07
-9.86514e-08
-1.73252e-07
-9.7447e-08
-1.39796e-07
-9.67432e-08
-1.06138e-07
-9.66102e-08
-7.20503e-08
-9.71061e-08
-3.7292e-08
-9.82723e-08
-1.61008e-09
-1.00172e-07
3.52419e-08
-1.02852e-07
7.35543e-08
-1.06363e-07
1.13675e-07
-1.10761e-07
1.5596e-07
-1.16047e-07
2.00777e-07
-1.22193e-07
2.48465e-07
-1.29227e-07
2.99324e-07
-1.37108e-07
3.53712e-07
-1.4571e-07
4.11901e-07
-1.55004e-07
4.73873e-07
-1.65015e-07
5.39453e-07
-1.75459e-07
6.08355e-07
-1.85713e-07
6.8005e-07
-1.94848e-07
7.53614e-07
-2.01218e-07
8.2767e-07
-2.02201e-07
9.00456e-07
-1.90589e-07
-1.52581e-07
9.77842e-07
-5.18762e-09
-2.68109e-08
-1.54842e-08
-1.41741e-08
-2.76393e-08
-1.216e-09
-4.09865e-08
1.05242e-08
-5.53119e-08
2.13101e-08
-7.05615e-08
3.1312e-08
-8.67625e-08
4.05881e-08
-1.03996e-07
4.91485e-08
-1.22363e-07
5.70038e-08
-1.41957e-07
6.4188e-08
-1.62836e-07
7.07648e-08
-1.85016e-07
7.68207e-08
-2.08461e-07
8.24516e-08
-2.33103e-07
8.77483e-08
-2.58839e-07
9.2785e-08
-2.85554e-07
9.76137e-08
-3.13118e-07
1.02263e-07
-3.41405e-07
1.06739e-07
-3.70291e-07
1.11033e-07
-3.99665e-07
1.15127e-07
-4.29421e-07
1.18996e-07
-4.59474e-07
1.22615e-07
-4.89741e-07
1.25963e-07
-5.20161e-07
1.29025e-07
-5.50677e-07
1.3179e-07
-5.81249e-07
1.34254e-07
-6.11845e-07
1.36419e-07
-6.42446e-07
1.38294e-07
-6.73041e-07
1.39894e-07
-7.03629e-07
1.41237e-07
-7.34207e-07
1.42347e-07
-7.6478e-07
1.43246e-07
-7.95352e-07
1.43955e-07
-8.25932e-07
1.445e-07
-8.56525e-07
1.44903e-07
-8.8714e-07
1.45185e-07
-9.1778e-07
1.45367e-07
-9.48451e-07
1.45468e-07
-9.79152e-07
1.45504e-07
-1.00988e-06
1.45488e-07
-1.04063e-06
1.45431e-07
-1.0714e-06
1.45343e-07
-1.10217e-06
1.45227e-07
-1.13295e-06
1.45088e-07
-1.16372e-06
1.44927e-07
-1.19447e-06
1.44743e-07
-1.2252e-06
1.44535e-07
-1.2559e-06
1.44301e-07
-1.28656e-06
1.44036e-07
-1.31717e-06
1.43735e-07
-1.34772e-06
1.43395e-07
-1.3782e-06
1.43009e-07
-1.40858e-06
1.42573e-07
-1.43887e-06
1.42079e-07
-1.46903e-06
1.41521e-07
-1.49906e-06
1.40894e-07
-1.52893e-06
1.4019e-07
-1.55862e-06
1.39403e-07
-1.58811e-06
1.38526e-07
-1.61739e-06
1.37553e-07
-1.64642e-06
1.36477e-07
-1.67517e-06
1.35293e-07
-1.70363e-06
1.33993e-07
-1.73177e-06
1.32573e-07
-1.75955e-06
1.31026e-07
-1.78694e-06
1.29347e-07
-1.81392e-06
1.27531e-07
-1.84045e-06
1.25571e-07
-1.86649e-06
1.23464e-07
-1.89201e-06
1.21204e-07
-1.91698e-06
1.18788e-07
-1.94136e-06
1.1621e-07
-1.9651e-06
1.13467e-07
-1.98818e-06
1.10555e-07
-2.01055e-06
1.07471e-07
-2.03217e-06
1.04213e-07
-2.053e-06
1.00776e-07
-2.07301e-06
9.71595e-08
-2.09213e-06
9.33605e-08
-2.11035e-06
8.93771e-08
-2.1276e-06
8.52078e-08
-2.14386e-06
8.08509e-08
-2.15907e-06
7.63054e-08
-2.1732e-06
7.15706e-08
-2.1862e-06
6.66463e-08
-2.19804e-06
6.15326e-08
-2.20867e-06
5.62307e-08
-2.21805e-06
5.07421e-08
-2.22615e-06
4.50695e-08
-2.23292e-06
3.92152e-08
-2.23834e-06
3.31835e-08
-2.24238e-06
2.69802e-08
-2.24501e-06
2.06144e-08
-2.2462e-06
1.40992e-08
-2.2459e-06
7.44994e-09
-2.24407e-06
6.82008e-10
-2.24065e-06
-6.19947e-09
-2.23559e-06
-1.32001e-08
-2.22885e-06
-2.0327e-08
-2.22041e-06
-2.7574e-08
-2.21022e-06
-3.49296e-08
-2.19827e-06
-4.23784e-08
-2.18454e-06
-4.99059e-08
-2.16901e-06
-5.74952e-08
-2.15168e-06
-6.51299e-08
-2.13253e-06
-7.27906e-08
-2.11157e-06
-8.0458e-08
-2.0888e-06
-8.81104e-08