/*--------------------------------*- C++ -*----------------------------------*\
| =========                 |                                                 |
| \\      /  F ield         | OpenFOAM: The Open Source CFD Toolbox           |
|  \\    /   O peration     | Version:  4.1                                   |
|   \\  /    A nd           | Web:      www.OpenFOAM.org                      |
|    \\/     M anipulation  |                                                 |
\*---------------------------------------------------------------------------*/
FoamFile
{
    version     2.0;
    format      ascii;
    class       volVectorField;
    location    "200";
    object      U;
}
// * * * * * * * * * * * * * * * * * * * * * * * * * * * * * * * * * * * * * //

dimensions      [0 1 -1 0 0 0 0];

internalField   nonuniform List<vector> 
12225
(
(9.83552 -0.969417 0)
(9.5766 -0.895711 0)
(9.2909 -0.596669 0)
(8.97668 -0.369338 0)
(8.67814 -0.224383 0)
(8.4119 -0.13634 0)
(8.17887 -0.0831829 0)
(7.97629 -0.050752 0)
(7.80096 -0.0308494 0)
(7.64959 -0.0184469 0)
(7.51878 -0.010732 0)
(7.40542 -0.00595653 0)
(7.30708 -0.00308128 0)
(7.22186 -0.00146751 0)
(7.1479 -0.000667333 0)
(7.08646 -0.0011867 0)
(7.0276 0.00210828 0)
(7.00091 -0.0203338 0)
(10.0744 0.265645 0)
(10.1924 0.434363 0)
(10.2331 0.3984 0)
(10.232 0.321256 0)
(10.2109 0.253703 0)
(10.176 0.201351 0)
(10.127 0.16204 0)
(10.0664 0.132976 0)
(9.99818 0.111423 0)
(9.9259 0.0951269 0)
(9.85187 0.0825422 0)
(9.77782 0.0725995 0)
(9.7049 0.0645332 0)
(9.63418 0.057838 0)
(9.56615 0.0518457 0)
(9.50165 0.047 0)
(9.44139 0.0401357 0)
(9.38771 0.0398253 0)
(10.0026 0.061427 0)
(10.0298 0.0474834 0)
(10.0597 0.00573777 0)
(10.0887 -0.00528617 0)
(10.1148 0.00349699 0)
(10.1381 0.0157468 0)
(10.1557 0.0262765 0)
(10.1671 0.0345566 0)
(10.1732 0.0407399 0)
(10.1749 0.0450607 0)
(10.1732 0.0478531 0)
(10.1685 0.0494518 0)
(10.1616 0.0501087 0)
(10.1529 0.0499832 0)
(10.143 0.0491101 0)
(10.1323 0.0474648 0)
(10.1217 0.0447529 0)
(10.1101 0.0394177 0)
(9.99667 0.00936582 0)
(10.0076 0.0255311 0)
(10.033 0.0385463 0)
(10.0549 0.055077 0)
(10.0719 0.0676138 0)
(10.0873 0.073271 0)
(10.1012 0.074329 0)
(10.1132 0.0733108 0)
(10.1235 0.0714158 0)
(10.1326 0.0691255 0)
(10.1406 0.0666566 0)
(10.1477 0.0641384 0)
(10.154 0.0615863 0)
(10.1595 0.0589644 0)
(10.1646 0.0561177 0)
(10.1692 0.0528722 0)
(10.1734 0.0486939 0)
(10.1766 0.0424594 0)
(9.99899 0.00656137 0)
(10.0076 0.034707 0)
(10.0275 0.0494578 0)
(10.0433 0.0560689 0)
(10.0554 0.0592084 0)
(10.0672 0.060017 0)
(10.0787 0.059515 0)
(10.0891 0.0586034 0)
(10.0984 0.0576111 0)
(10.107 0.0565423 0)
(10.1151 0.0553643 0)
(10.1227 0.0540561 0)
(10.1298 0.0525816 0)
(10.1367 0.0508707 0)
(10.1432 0.0487906 0)
(10.1495 0.0461666 0)
(10.1554 0.042668 0)
(10.1604 0.0380376 0)
(10.0002 0.00923272 0)
(10.0077 0.0334378 0)
(10.0232 0.0443633 0)
(10.0364 0.0485722 0)
(10.0472 0.0518679 0)
(10.0579 0.0542676 0)
(10.0683 0.0553698 0)
(10.0777 0.0555772 0)
(10.0863 0.0552693 0)
(10.0943 0.0545852 0)
(10.1018 0.0535814 0)
(10.1089 0.0523016 0)
(10.1157 0.0507568 0)
(10.1222 0.0489148 0)
(10.1285 0.0466881 0)
(10.1345 0.0439567 0)
(10.1401 0.0405694 0)
(10.145 0.0364473 0)
(10.0004 0.0090288 0)
(10.0067 0.0280727 0)
(10.0193 0.038398 0)
(10.0314 0.0436605 0)
(10.0417 0.0477566 0)
(10.0516 0.0506036 0)
(10.0612 0.0518923 0)
(10.07 0.0521137 0)
(10.0781 0.0517484 0)
(10.0857 0.050994 0)
(10.0928 0.0499242 0)
(10.0996 0.0485813 0)
(10.1061 0.0469793 0)
(10.1123 0.045091 0)
(10.1182 0.0428559 0)
(10.1238 0.0401953 0)
(10.1289 0.0370438 0)
(10.1334 0.0333984 0)
(10.0004 0.0080256 0)
(10.0058 0.0241635 0)
(10.0166 0.0345132 0)
(10.0277 0.0402684 0)
(10.0375 0.0442891 0)
(10.0468 0.0469778 0)
(10.056 0.048262 0)
(10.0645 0.0485603 0)
(10.0723 0.0482853 0)
(10.0797 0.0476133 0)
(10.0866 0.0466118 0)
(10.0932 0.0453204 0)
(10.0994 0.043757 0)
(10.1054 0.0419062 0)
(10.111 0.0397322 0)
(10.1163 0.0371915 0)
(10.1211 0.0342668 0)
(10.1254 0.0309966 0)
(10.0004 0.00717329 0)
(10.0051 0.021386 0)
(10.0144 0.0312896 0)
(10.0246 0.0370576 0)
(10.0339 0.0409425 0)
(10.0429 0.0435585 0)
(10.0516 0.0449112 0)
(10.0598 0.0453207 0)
(10.0675 0.0451384 0)
(10.0746 0.0445358 0)
(10.0814 0.043586 0)
(10.0878 0.0423327 0)
(10.0939 0.0408008 0)
(10.0997 0.0389875 0)
(10.1051 0.0368765 0)
(10.1102 0.0344507 0)
(10.1148 0.0317193 0)
(10.1189 0.0287411 0)
(10.0004 0.00635907 0)
(10.0045 0.018743 0)
(10.0124 0.0278585 0)
(10.0216 0.0334709 0)
(10.0303 0.0372307 0)
(10.0388 0.0397807 0)
(10.047 0.0411829 0)
(10.0549 0.0416814 0)
(10.0624 0.0415751 0)
(10.0694 0.0410339 0)
(10.076 0.040136 0)
(10.0822 0.0389294 0)
(10.0882 0.0374448 0)
(10.0938 0.035692 0)
(10.099 0.0336721 0)
(10.1039 0.0313892 0)
(10.1082 0.0288694 0)
(10.1122 0.0261807 0)
(10.0004 0.00553319 0)
(10.0038 0.0161356 0)
(10.0106 0.0243014 0)
(10.0187 0.0296386 0)
(10.0268 0.0332276 0)
(10.0347 0.0356557 0)
(10.0425 0.0370474 0)
(10.05 0.0375948 0)
(10.0571 0.0375444 0)
(10.0639 0.0370564 0)
(10.0703 0.036213 0)
(10.0764 0.0350642 0)
(10.0821 0.0336458 0)
(10.0875 0.0319785 0)
(10.0925 0.0300778 0)
(10.0972 0.0279634 0)
(10.1014 0.0256702 0)
(10.1052 0.0232669 0)
(10.0003 0.00469066 0)
(10.0033 0.0135898 0)
(10.0089 0.0207013 0)
(10.016 0.0256063 0)
(10.0234 0.0289369 0)
(10.0307 0.0311785 0)
(10.038 0.0324989 0)
(10.0451 0.0330536 0)
(10.0518 0.0330363 0)
(10.0583 0.032591 0)
(10.0645 0.0318004 0)
(10.0703 0.0307169 0)
(10.0758 0.0293799 0)
(10.081 0.0278191 0)
(10.0858 0.0260601 0)
(10.0902 0.0241321 0)
(10.0943 0.0220728 0)
(10.0979 0.0199462 0)
(10.0003 0.00384967 0)
(10.0027 0.0111232 0)
(10.0075 0.0170985 0)
(10.0136 0.0214057 0)
(10.0203 0.0243741 0)
(10.027 0.0263632 0)
(10.0337 0.027549 0)
(10.0403 0.0280611 0)
(10.0467 0.0280465 0)
(10.0528 0.0276278 0)
(10.0587 0.0268848 0)
(10.0642 0.0258709 0)
(10.0695 0.0246277 0)
(10.0744 0.0231898 0)
(10.079 0.021589 0)
(10.0832 0.0198582 0)
(10.0871 0.0180334 0)
(10.0906 0.0161715 0)
(10.0002 0.00302307 0)
(10.0023 0.00873102 0)
(10.0063 0.0135123 0)
(10.0116 0.0170753 0)
(10.0175 0.0195676 0)
(10.0236 0.0212272 0)
(10.0297 0.0222078 0)
(10.0359 0.0226175 0)
(10.0419 0.0225662 0)
(10.0476 0.0221525 0)
(10.0532 0.0214481 0)
(10.0584 0.0205048 0)
(10.0634 0.0193636 0)
(10.0681 0.0180603 0)
(10.0724 0.0166278 0)
(10.0765 0.0150988 0)
(10.0802 0.0135046 0)
(10.0836 0.0118939 0)
(10.0002 0.00221448 0)
(10.0019 0.00639815 0)
(10.0053 0.00994473 0)
(10.0099 0.0126414 0)
(10.0151 0.0145398 0)
(10.0206 0.0157803 0)
(10.0262 0.0164786 0)
(10.0319 0.0167197 0)
(10.0375 0.016584 0)
(10.0429 0.0161457 0)
(10.0481 0.0154647 0)
(10.0531 0.0145864 0)
(10.0578 0.0135484 0)
(10.0622 0.0123836 0)
(10.0664 0.0111222 0)
(10.0702 0.00979311 0)
(10.0738 0.00842176 0)
(10.0771 0.00704836 0)
(10.0002 0.00141855 0)
(10.0016 0.00409635 0)
(10.0045 0.0063698 0)
(10.0085 0.00809589 0)
(10.0131 0.00928435 0)
(10.0181 0.0100082 0)
(10.0233 0.0103415 0)
(10.0286 0.0103435 0)
(10.0338 0.010069 0)
(10.0388 0.0095691 0)
(10.0437 0.00888791 0)
(10.0484 0.00806123 0)
(10.0529 0.00711919 0)
(10.0571 0.00608856 0)
(10.0611 0.00499362 0)
(10.0648 0.00385719 0)
(10.0682 0.00269804 0)
(10.0714 0.00154792 0)
(10.0002 0.000619352 0)
(10.0014 0.00177654 0)
(10.004 0.00272608 0)
(10.0075 0.00338568 0)
(10.0117 0.00375322 0)
(10.0163 0.00385967 0)
(10.0211 0.0037415 0)
(10.026 0.00343091 0)
(10.0309 0.00295824 0)
(10.0357 0.00235273 0)
(10.0404 0.00164037 0)
(10.0448 0.000843643 0)
(10.0491 -1.80066e-05 0)
(10.0532 -0.00092684 0)
(10.057 -0.00186686 0)
(10.0605 -0.00282294 0)
(10.0639 -0.0037835 0)
(10.067 -0.00472516 0)
(10.0001 -0.000162817 0)
(10.0013 -0.000498915 0)
(10.0037 -0.000870653 0)
(10.0071 -0.00130669 0)
(10.011 -0.00180541 0)
(10.0154 -0.00236376 0)
(10.02 -0.00297835 0)
(10.0247 -0.00364348 0)
(10.0294 -0.00435091 0)
(10.0341 -0.0050926 0)
(10.0386 -0.00586116 0)
(10.0429 -0.00664971 0)
(10.047 -0.00745106 0)
(10.051 -0.00825827 0)
(10.0547 -0.00906433 0)
(10.0582 -0.00986253 0)
(10.0615 -0.010648 0)
(10.0646 -0.0114053 0)
(10.0001 -0.000879586 0)
(10.0013 -0.00259103 0)
(10.0037 -0.00419224 0)
(10.0071 -0.00565555 0)
(10.0111 -0.00696623 0)
(10.0154 -0.00814771 0)
(10.02 -0.00922996 0)
(10.0247 -0.0102313 0)
(10.0294 -0.0111633 0)
(10.034 -0.0120376 0)
(10.0384 -0.0128649 0)
(10.0428 -0.0136531 0)
(10.0469 -0.0144072 0)
(10.0508 -0.0151304 0)
(10.0545 -0.0158247 0)
(10.058 -0.0164906 0)
(10.0612 -0.0171296 0)
(10.0643 -0.0177324 0)
(10.0001 -0.00153034 0)
(10.0014 -0.00450592 0)
(10.0039 -0.0072462 0)
(10.0074 -0.00964271 0)
(10.0116 -0.0116696 0)
(10.0161 -0.0133947 0)
(10.0208 -0.014883 0)
(10.0256 -0.0161697 0)
(10.0304 -0.0172849 0)
(10.0351 -0.0182622 0)
(10.0396 -0.0191307 0)
(10.044 -0.0199112 0)
(10.0481 -0.0206191 0)
(10.0521 -0.0212661 0)
(10.0558 -0.0218619 0)
(10.0593 -0.0224131 0)
(10.0626 -0.0229257 0)
(10.0657 -0.0233955 0)
(10.0002 -0.00213376 0)
(10.0015 -0.00633231 0)
(10.0042 -0.0101908 0)
(10.0081 -0.0134422 0)
(10.0126 -0.016079 0)
(10.0174 -0.0182682 0)
(10.0223 -0.0201093 0)
(10.0273 -0.0216362 0)
(10.0323 -0.0228932 0)
(10.0371 -0.023939 0)
(10.0417 -0.0248222 0)
(10.0462 -0.0255766 0)
(10.0504 -0.0262272 0)
(10.0544 -0.0267949 0)
(10.0582 -0.0272955 0)
(10.0617 -0.0277413 0)
(10.0651 -0.0281417 0)
(10.0682 -0.028497 0)
(10.0001 -0.00267598 0)
(10.0015 -0.00810569 0)
(10.0046 -0.0131356 0)
(10.009 -0.0171842 0)
(10.0139 -0.0203192 0)
(10.019 -0.022877 0)
(10.0243 -0.0249945 0)
(10.0295 -0.0267024 0)
(10.0347 -0.0280628 0)
(10.0397 -0.029155 0)
(10.0445 -0.0300382 0)
(10.049 -0.030754 0)
(10.0534 -0.0313368 0)
(10.0574 -0.0318161 0)
(10.0613 -0.0322147 0)
(10.0649 -0.0325494 0)
(10.0683 -0.0328331 0)
(10.0714 -0.0330681 0)
(10.0001 -0.0031286 0)
(10.0014 -0.00984898 0)
(10.0049 -0.0160656 0)
(10.01 -0.0208343 0)
(10.0155 -0.024458 0)
(10.021 -0.0273816 0)
(10.0265 -0.0296994 0)
(10.0321 -0.0314758 0)
(10.0375 -0.0328483 0)
(10.0427 -0.0339309 0)
(10.0476 -0.0347852 0)
(10.0523 -0.035453 0)
(10.0568 -0.0359737 0)
(10.0609 -0.0363816 0)
(10.0648 -0.0367031 0)
(10.0685 -0.0369568 0)
(10.072 -0.0371576 0)
(10.0752 -0.0373117 0)
(9.99999 -0.00343334 0)
(10.0012 -0.0119174 0)
(10.0052 -0.0191055 0)
(10.0111 -0.02407 0)
(10.0171 -0.028086 0)
(10.023 -0.0315575 0)
(10.0289 -0.0342284 0)
(10.0348 -0.0361222 0)
(10.0405 -0.037483 0)
(10.0459 -0.0384902 0)
(10.051 -0.0392277 0)
(10.0559 -0.0397532 0)
(10.0605 -0.0401205 0)
(10.0648 -0.040375 0)
(10.0688 -0.0405486 0)
(10.0726 -0.0406637 0)
(10.0761 -0.0407347 0)
(10.0794 -0.040762 0)
(9.9997 -0.00293782 0)
(10.0005 -0.0149119 0)
(10.0055 -0.0236065 0)
(10.0121 -0.0278771 0)
(10.0183 -0.031312 0)
(10.0245 -0.0348019 0)
(10.0311 -0.0377519 0)
(10.0376 -0.039978 0)
(10.0438 -0.0416485 0)
(10.0496 -0.0429024 0)
(10.0551 -0.0438088 0)
(10.0603 -0.0444318 0)
(10.0652 -0.0448387 0)
(10.0698 -0.0450874 0)
(10.074 -0.0452212 0)
(10.078 -0.0452712 0)
(10.0817 -0.045262 0)
(10.0852 -0.0452036 0)
(9.99826 0.000529366 0)
(9.99727 -0.0154305 0)
(10.0047 -0.0287316 0)
(10.0134 -0.0348517 0)
(10.0202 -0.0379053 0)
(10.0269 -0.0398921 0)
(10.0342 -0.0412457 0)
(10.0416 -0.0422636 0)
(10.0486 -0.0431236 0)
(10.0552 -0.0438509 0)
(10.0614 -0.0444258 0)
(10.0673 -0.0448653 0)
(10.0727 -0.0451952 0)
(10.0778 -0.0454457 0)
(10.0825 -0.0456356 0)
(10.0869 -0.0457816 0)
(10.091 -0.0458903 0)
(10.0947 -0.0459351 0)
(9.99433 0.00326643 0)
(9.98944 -0.00600988 0)
(10.0009 -0.0207596 0)
(10.0149 -0.0364414 0)
(10.0259 -0.0489662 0)
(10.0356 -0.0564715 0)
(10.045 -0.0601623 0)
(10.054 -0.0617731 0)
(10.0624 -0.062307 0)
(10.0702 -0.0621553 0)
(10.0775 -0.0615603 0)
(10.0843 -0.0606924 0)
(10.0906 -0.0596958 0)
(10.0964 -0.0586514 0)
(10.1017 -0.0576285 0)
(10.1065 -0.0566576 0)
(10.111 -0.0557653 0)
(10.1151 -0.0549047 0)
(9.99403 -0.0268137 0)
(9.99269 -0.0111997 0)
(10.0051 0.0199661 0)
(10.0223 0.0290951 0)
(10.0409 0.0215359 0)
(10.0596 0.00979193 0)
(10.0771 -0.0011828 0)
(10.0924 -0.0108043 0)
(10.1057 -0.0190329 0)
(10.1171 -0.0258617 0)
(10.1268 -0.0313531 0)
(10.135 -0.0357148 0)
(10.1417 -0.0391367 0)
(10.147 -0.0418088 0)
(10.1511 -0.0438874 0)
(10.1541 -0.0455228 0)
(10.1562 -0.046832 0)
(10.1574 -0.0479198 0)
(10.0314 -0.193982 0)
(10.0939 -0.342972 0)
(10.127 -0.333186 0)
(10.1423 -0.283819 0)
(10.1578 -0.237677 0)
(10.1738 -0.200002 0)
(10.1851 -0.169817 0)
(10.189 -0.14605 0)
(10.1858 -0.127478 0)
(10.1766 -0.112796 0)
(10.1625 -0.101032 0)
(10.1443 -0.0914793 0)
(10.1229 -0.0836559 0)
(10.099 -0.0771877 0)
(10.0734 -0.0718002 0)
(10.0467 -0.0673294 0)
(10.0192 -0.0636431 0)
(9.99167 -0.0610018 0)
(9.93961 0.728868 0)
(9.87047 0.71431 0)
(9.75661 0.510523 0)
(9.59841 0.343383 0)
(9.42172 0.226502 0)
(9.24551 0.14756 0)
(9.07606 0.0945589 0)
(8.91591 0.0587049 0)
(8.7668 0.0342673 0)
(8.62955 0.0175938 0)
(8.50397 0.00628569 0)
(8.38945 -0.00130397 0)
(8.28514 -0.00629106 0)
(8.19028 -0.00946574 0)
(8.10389 -0.0114369 0)
(8.02517 -0.0125925 0)
(7.95294 -0.0131901 0)
(7.88686 -0.013844 0)
(0.00603651 -0.0122334 1.45603e-19)
(0.0196251 -0.0216744 4.18096e-19)
(0.0341813 -0.0232003 -5.09486e-19)
(0.0470755 -0.0198873 2.52541e-19)
(0.0559722 -0.0141131 1.72876e-19)
(0.0604128 -0.00754512 1.43602e-19)
(0.0604513 -0.00127985 -2.57166e-19)
(0.056654 0.0039485 2.91573e-19)
(0.0499607 0.00785787 -2.98551e-19)
(0.0410794 0.0105863 3.04574e-19)
(0.0306044 0.0124626 3.51357e-19)
(0.0189711 0.0138019 -3.6671e-19)
(0.00643194 0.0147746 -4.32985e-19)
(-0.00687732 0.0153705 -6.58153e-20)
(-0.0209961 0.0157364 -7.71468e-20)
(-0.0360143 0.0161401 4.22574e-19)
(-0.0520068 0.0166888 3.45382e-19)
(-0.0690777 0.0174089 1.42928e-19)
(-0.0873287 0.0182943 -1.70798e-20)
(-0.106851 0.019325 -6.9486e-20)
(-0.127714 0.0204756 -7.17015e-20)
(-0.14997 0.021715 2.21318e-19)
(-0.173643 0.0230106 -1.90006e-19)
(-0.198732 0.0243281 -3.36759e-20)
(-0.225213 0.0256362 2.95451e-20)
(-0.253042 0.0269067 -1.1846e-19)
(-0.282158 0.0281198 -4.83599e-20)
(-0.312485 0.02925 5.68715e-20)
(-0.343936 0.0302743 -4.17008e-21)
(-0.376413 0.0311787 -1.01442e-19)
(-0.409812 0.0319597 -7.75458e-21)
(-0.444026 0.0326129 -3.87024e-20)
(-0.478947 0.0331401 -4.30695e-21)
(-0.514473 0.0335412 -8.26767e-22)
(-0.550506 0.0338193 7.85663e-20)
(-0.586956 0.0339794 1.02108e-19)
(-0.623744 0.034033 -2.31944e-21)
(-0.660795 0.0339948 -3.06686e-20)
(-0.698044 0.0338901 8.70644e-20)
(-0.735434 0.0337425 2.04301e-20)
(-0.772916 0.0335788 1.47239e-20)
(-0.81046 0.0334253 5.27785e-20)
(-0.84813 0.0332843 -1.48392e-19)
(-0.885896 0.03314 1.06537e-19)
(-0.923755 0.0329966 -1.27413e-19)
(-0.961703 0.0328501 4.53128e-20)
(-0.999736 0.0327023 -7.82811e-20)
(-1.03785 0.0325515 8.33883e-20)
(-1.07603 0.0323989 4.97841e-20)
(-1.11428 0.0322419 8.22061e-20)
(-1.15259 0.032082 -6.33817e-20)
(-1.19096 0.0319168 3.3217e-20)
(-1.22936 0.0317468 7.27532e-20)
(-1.26779 0.031569 -7.17128e-20)
(-1.30624 0.0313843 -6.88921e-20)
(-1.3447 0.0311893 -1.1249e-19)
(-1.38314 0.0309846 9.37889e-20)
(-1.42155 0.0307665 -3.98951e-20)
(-1.45991 0.0305355 2.20476e-20)
(-1.4982 0.0302883 -5.97483e-20)
(-1.53639 0.0300256 6.37472e-20)
(-1.57447 0.0297441 4.46832e-20)
(-1.61239 0.0294451 4.79486e-20)
(-1.65014 0.029125 -9.02664e-20)
(-1.68768 0.0287855 -6.46416e-20)
(-1.72498 0.0284229 -6.15249e-20)
(-1.76199 0.028039 -1.7993e-20)
(-1.7987 0.0276303 -4.13983e-20)
(-1.83505 0.0271986 -3.91216e-20)
(-1.87101 0.0267404 5.55041e-20)
(-1.90654 0.026258 -7.93133e-20)
(-1.94159 0.0257478 7.65122e-21)
(-1.97612 0.0252124 -2.77858e-21)
(-2.01009 0.0246484 -1.0957e-20)
(-2.04344 0.0240586 4.43538e-20)
(-2.07614 0.0234397 3.98195e-20)
(-2.10812 0.0227947 4.55388e-20)
(-2.13934 0.0221203 7.74424e-20)
(-2.16976 0.0214194 3.1584e-20)
(-2.1993 0.0206885 -1.64677e-20)
(-2.22794 0.0199306 4.09511e-20)
(-2.2556 0.019142 1.83984e-20)
(-2.28224 0.0183251 2.36391e-20)
(-2.3078 0.0174757 -1.8971e-20)
(-2.33222 0.0165954 3.8571e-20)
(-2.35546 0.015679 -3.98581e-21)
(-2.37745 0.0147266 -9.25329e-20)
(-2.39812 0.0137307 -6.24258e-20)
(-2.41741 0.0126875 -2.7135e-21)
(-2.43525 0.0115881 1.70387e-20)
(-2.45158 0.0104226 1.07409e-20)
(-2.46632 0.00918333 1.1162e-20)
(-2.47939 0.00786662 -3.67706e-20)
(-2.49069 0.00647702 4.97082e-20)
(-2.50012 0.00503666 9.84429e-20)
(-2.50755 0.00358982 5.77246e-20)
(-2.51282 0.00219199 7.30454e-20)
(-2.51583 0.000889149 7.69477e-20)
(-2.51678 -0.000295599 -7.21641e-20)
(-2.51592 -0.00141276 7.35199e-20)
(-2.51323 -0.00251934 8.62245e-20)
(-2.50869 -0.00362949 2.81443e-20)
(-2.5023 -0.0047467 -1.64946e-20)
(-2.49402 -0.00587296 1.71814e-20)
(-2.48386 -0.00700613 3.50981e-20)
(-2.47178 -0.00814461 -3.03422e-20)
(-2.45777 -0.00928519 -5.52789e-20)
(-2.44184 -0.0104266 -4.5222e-20)
(-2.42397 -0.0115661 4.11707e-20)
(-2.40417 -0.0127012 -5.44303e-20)
(-2.38245 -0.0138291 -2.51476e-20)
(-2.35883 -0.0149462 4.53022e-22)
(-2.33331 -0.0160496 -1.32431e-20)
(-2.30595 -0.0171349 2.36779e-20)
(-2.27676 -0.0181993 -3.64047e-20)
(-2.24578 -0.0192373 4.12507e-20)
(-2.21308 -0.0202464 3.35097e-20)
(-2.1787 -0.0212203 -4.38505e-20)
(-2.14271 -0.0221567 -5.17266e-22)
(-2.10517 -0.0230484 1.99862e-20)
(-2.06616 -0.023893 -1.82402e-20)
(-2.02578 -0.0246839 3.611e-20)
(-1.9841 -0.0254278 1.9776e-20)
(-1.94122 -0.0261159 -8.46945e-21)
(-1.89722 -0.0267423 -5.02522e-21)
(-1.85222 -0.0273103 -1.07266e-20)
(-1.8063 -0.0278195 -7.71798e-21)
(-1.75959 -0.0282574 -1.23551e-20)
(-1.71218 -0.0286285 -1.5899e-20)
(-1.6642 -0.0289328 5.68069e-21)
(-1.61573 -0.0291674 -1.96368e-21)
(-1.5669 -0.0293317 1.4567e-20)
(-1.51782 -0.0294269 2.10842e-20)
(-1.46859 -0.0294511 -3.64952e-21)
(-1.41933 -0.0294035 4.85198e-20)
(-1.37015 -0.0292819 3.97291e-21)
(-1.32115 -0.0290875 5.01797e-20)
(-1.27245 -0.0288241 3.67699e-20)
(-1.22416 -0.028496 7.8194e-20)
(-1.17637 -0.0281052 -9.21632e-20)
(-1.12917 -0.0276481 5.36348e-20)
(-1.08263 -0.0271244 2.0987e-20)
(-1.03684 -0.0265304 -9.44975e-20)
(-0.99185 -0.0258737 -1.62535e-19)
(-0.947736 -0.0251524 4.65346e-20)
(-0.904538 -0.0243764 1.35077e-19)
(-0.862291 -0.0235413 1.68638e-19)
(-0.821036 -0.0226639 -1.61674e-19)
(-0.780829 -0.021752 -2.6081e-20)
(-0.7417 -0.0208249 4.65344e-20)
(-0.703654 -0.019886 -7.7099e-20)
(-0.666663 -0.0189406 4.45457e-20)
(-0.63069 -0.0179946 1.82843e-19)
(-0.59568 -0.017061 -2.09197e-19)
(-0.561571 -0.0161417 -6.7758e-20)
(-0.528281 -0.0152507 -1.00506e-19)
(-0.495702 -0.0144009 -2.77905e-19)
(-0.463714 -0.0135981 -1.93633e-19)
(-0.432187 -0.0128563 7.17433e-20)
(-0.400951 -0.0121984 7.84962e-20)
(-0.369841 -0.0116269 1.34608e-19)
(-0.33865 -0.01117 -1.29415e-19)
(-0.307164 -0.010849 -1.94986e-19)
(-0.275131 -0.0106894 3.86608e-19)
(-0.242301 -0.0107051 -1.33937e-19)
(-0.208428 -0.0109106 1.62282e-19)
(-0.173193 -0.0113543 2.3482e-19)
(-0.136261 -0.0121067 4.02134e-19)
(-0.0974112 -0.0131851 -7.38979e-20)
(-0.0565284 -0.0145343 -8.04043e-20)
(-0.0131798 -0.0160239 -5.60797e-19)
(0.0316259 -0.0171397 -2.66334e-19)
(0.0782241 -0.0180151 -1.08074e-19)
(0.128349 -0.0191508 3.60941e-19)
(0.182308 -0.0204476 -4.8851e-19)
(0.240107 -0.0217507 -7.49376e-19)
(0.302085 -0.0227711 1.0022e-18)
(0.363652 -0.0229306 -7.74281e-19)
(0.434406 -0.0206014 4.57133e-19)
(0.452798 -0.00279352 -4.02077e-20)
(0.0077148 -0.0414411 -2.79555e-19)
(0.0179106 -0.0477199 1.29346e-20)
(0.022406 -0.0385377 2.7374e-19)
(0.023142 -0.0262458 1.44241e-19)
(0.0209207 -0.0134398 -3.13991e-19)
(0.0161515 -0.0011973 -1.58746e-19)
(0.00926311 0.0097738 -8.59107e-20)
(0.000382969 0.0190281 -1.15885e-19)
(-0.0105184 0.0264442 1.05052e-19)
(-0.0233844 0.032212 8.82909e-20)
(-0.0381286 0.0366846 9.41236e-20)
(-0.0546451 0.0402523 -8.99189e-20)
(-0.072844 0.0432565 1.58863e-19)
(-0.0926069 0.0459594 -3.53979e-20)
(-0.113788 0.0485665 -1.31513e-19)
(-0.136315 0.0512279 -2.3561e-19)
(-0.160168 0.0540222 -6.20923e-20)
(-0.185324 0.0569663 3.93031e-20)
(-0.211749 0.0600355 -3.15736e-20)
(-0.239402 0.063181 1.54453e-19)
(-0.268226 0.0663444 -1.02851e-19)
(-0.298155 0.0694634 -7.64029e-20)
(-0.329107 0.0724786 1.98221e-19)
(-0.360991 0.0753356 3.6871e-20)
(-0.393709 0.0779884 2.95593e-20)
(-0.427159 0.0804009 9.7221e-20)
(-0.461236 0.0825504 2.14201e-20)
(-0.49584 0.0844265 -7.48817e-20)
(-0.530873 0.0860228 -1.25655e-19)
(-0.566248 0.087332 4.78223e-20)
(-0.601885 0.0883536 -2.28108e-20)
(-0.63771 0.0891012 2.84883e-20)
(-0.67366 0.089596 -3.25022e-20)
(-0.709679 0.0898614 -1.4359e-20)
(-0.745725 0.0899228 -7.36667e-20)
(-0.781767 0.0898044 -2.93632e-20)
(-0.817785 0.0895337 -6.09386e-20)
(-0.853771 0.0891368 7.15489e-20)
(-0.889724 0.0886433 -5.83818e-20)
(-0.925644 0.0880847 1.18925e-20)
(-0.961529 0.0874937 6.53697e-21)
(-0.997372 0.0868942 -1.28542e-19)
(-1.03316 0.0862945 3.84478e-20)
(-1.06889 0.0856899 7.05425e-20)
(-1.10456 0.0850814 1.87217e-19)
(-1.14015 0.0844673 -7.93848e-20)
(-1.17568 0.0838483 -4.49522e-20)
(-1.21112 0.083222 1.15534e-20)
(-1.24649 0.0825883 -2.61712e-20)
(-1.28177 0.0819438 4.42444e-20)
(-1.31695 0.0812879 -9.77621e-20)
(-1.35203 0.080617 -6.56486e-20)
(-1.38701 0.07993 7.51281e-21)
(-1.42185 0.0792224 1.34672e-19)
(-1.45657 0.0784932 5.26085e-20)
(-1.49112 0.0777379 8.89906e-20)
(-1.52551 0.0769552 2.37883e-20)
(-1.55972 0.07614 -2.04626e-21)
(-1.59371 0.0752912 1.24662e-20)
(-1.62748 0.0744041 -1.00313e-20)
(-1.66099 0.0734782 3.63409e-20)
(-1.69423 0.072509 2.55695e-20)
(-1.72718 0.0714967 -6.73266e-20)
(-1.75979 0.0704371 2.19481e-20)
(-1.79204 0.0693307 -3.18721e-20)
(-1.82391 0.0681735 1.06142e-20)
(-1.85536 0.0669664 -6.70249e-20)
(-1.88636 0.0657055 7.05752e-20)
(-1.91687 0.0643921 3.07262e-20)
(-1.94686 0.0630226 2.12173e-20)
(-1.9763 0.0615987 1.32432e-19)
(-2.00515 0.060117 -3.87935e-20)
(-2.03336 0.0585798 3.46702e-20)
(-2.06091 0.0569839 2.39676e-20)
(-2.08775 0.0553323 6.48261e-20)
(-2.11385 0.0536219 2.35642e-20)
(-2.13915 0.0518561 2.69791e-20)
(-2.16362 0.0500322 -1.04712e-19)
(-2.18722 0.0481536 -5.94035e-20)
(-2.2099 0.0462175 -1.62538e-20)
(-2.23162 0.0442276 2.43318e-20)
(-2.25234 0.0421808 1.48855e-21)
(-2.272 0.040081 1.15518e-20)
(-2.29058 0.0379255 -1.05769e-21)
(-2.30802 0.0357181 -4.25738e-20)
(-2.32428 0.0334562 8.35938e-20)
(-2.33932 0.0311439 9.77189e-21)
(-2.35308 0.0287785 7.95933e-20)
(-2.36553 0.0263617 3.45697e-21)
(-2.37661 0.0238901 4.30365e-20)
(-2.38631 0.0213587 5.32163e-20)
(-2.39458 0.0187626 2.1245e-20)
(-2.4014 0.0160959 8.34521e-20)
(-2.40677 0.0133536 2.92749e-20)
(-2.41069 0.0105381 -1.87459e-19)
(-2.4132 0.00767438 -6.92476e-20)
(-2.41439 0.00482265 -4.27226e-20)
(-2.41436 0.0020603 4.48489e-20)
(-2.41292 -0.00058542 -8.11085e-20)
(-2.4098 -0.00316196 -1.17406e-19)
(-2.40495 -0.00571197 4.97603e-20)
(-2.39831 -0.0082493 -4.77601e-20)
(-2.38987 -0.0107751 -2.19707e-20)
(-2.37959 -0.0132883 -1.05204e-19)
(-2.36746 -0.0157841 -2.87346e-20)
(-2.35346 -0.0182582 8.42526e-20)
(-2.33759 -0.020704 -1.67671e-20)
(-2.31984 -0.0231158 -1.53378e-20)
(-2.3002 -0.0254867 -6.98333e-21)
(-2.27869 -0.0278103 -8.76741e-21)
(-2.25531 -0.0300795 -4.73483e-20)
(-2.23009 -0.0322875 -4.71692e-21)
(-2.20305 -0.0344274 4.88764e-22)
(-2.17421 -0.0364917 1.2974e-20)
(-2.14361 -0.0384739 -2.37306e-20)
(-2.11131 -0.0403662 -5.45005e-20)
(-2.07734 -0.0421627 -7.29411e-21)
(-2.04177 -0.0438552 -1.2312e-20)
(-2.00466 -0.0454388 8.27554e-23)
(-1.96608 -0.0469053 -1.4444e-20)
(-1.92612 -0.0482512 7.78884e-24)
(-1.88485 -0.0494694 1.93496e-20)
(-1.84237 -0.0505609 1.06108e-20)
(-1.79878 -0.0515239 -1.348e-20)
(-1.75417 -0.0523627 -1.35888e-20)
(-1.70864 -0.0530655 2.41402e-20)
(-1.6623 -0.0536252 9.53887e-21)
(-1.61525 -0.0540514 1.35688e-21)
(-1.5676 -0.054353 -1.60685e-21)
(-1.51946 -0.0545215 -7.23658e-21)
(-1.47094 -0.0545606 4.87554e-22)
(-1.42214 -0.0544714 -4.24898e-21)
(-1.37316 -0.05426 -2.91606e-21)
(-1.32413 -0.0539283 -1.30577e-21)
(-1.27513 -0.0534808 1.24968e-20)
(-1.22629 -0.0529178 1.10583e-20)
(-1.1777 -0.0522457 1.26651e-20)
(-1.12945 -0.0514721 1.43034e-20)
(-1.08165 -0.0506085 1.03535e-20)
(-1.03439 -0.0496629 1.72013e-20)
(-0.987751 -0.0486389 4.82523e-20)
(-0.9418 -0.0475391 -3.18288e-20)
(-0.896601 -0.0463655 -3.6159e-20)
(-0.85221 -0.0451284 -6.17393e-20)
(-0.808677 -0.0438339 6.28631e-20)
(-0.766037 -0.0424935 -1.06629e-20)
(-0.724314 -0.0411142 6.90238e-20)
(-0.683532 -0.0397138 1.31069e-19)
(-0.643719 -0.038313 -9.46301e-21)
(-0.604892 -0.0369342 -1.7169e-19)
(-0.567039 -0.0355988 6.01403e-20)
(-0.530123 -0.0343137 1.56435e-20)
(-0.494088 -0.0330907 1.22879e-19)
(-0.458868 -0.0319382 -7.17435e-20)
(-0.42438 -0.0308748 -2.29488e-20)
(-0.390522 -0.0299109 -3.36006e-20)
(-0.357172 -0.0290654 1.59033e-19)
(-0.324188 -0.0283478 5.65415e-20)
(-0.291405 -0.0277782 2.29837e-20)
(-0.258639 -0.0273754 -3.04249e-20)
(-0.225677 -0.0271548 5.09954e-20)
(-0.192281 -0.02712 1.181e-19)
(-0.158201 -0.0272954 1.628e-19)
(-0.123147 -0.0277033 -1.8217e-19)
(-0.0868176 -0.0283647 -3.84213e-20)
(-0.048898 -0.0292779 -6.64067e-20)
(-0.00904458 -0.0304481 -9.5079e-20)
(0.0328201 -0.0317639 -2.66521e-20)
(0.0770354 -0.0331922 -1.72469e-19)
(0.124191 -0.034791 -9.5525e-20)
(0.174821 -0.0364814 -1.33283e-19)
(0.229504 -0.038307 -1.82149e-19)
(0.288493 -0.0405032 -2.61782e-19)
(0.351633 -0.0430287 -1.67427e-19)
(0.418789 -0.0456171 2.18882e-19)
(0.489583 -0.0479797 4.68596e-19)
(0.563739 -0.0495839 -6.24777e-20)
(0.637842 -0.0495782 -2.32729e-20)
(0.716703 -0.0446141 1.24414e-19)
(0.76751 -0.0241408 -1.10219e-20)
(0.00307025 -0.0602367 1.20891e-18)
(0.00397641 -0.0519818 1.72058e-19)
(0.000177972 -0.0334849 2.5532e-20)
(-0.00626584 -0.0153628 -2.28841e-19)
(-0.0146188 0.00145622 3.86491e-20)
(-0.0244859 0.0168086 6.07723e-20)
(-0.0356937 0.030575 3.38506e-20)
(-0.0482286 0.042665 8.99516e-20)
(-0.0621565 0.0530651 -6.04892e-20)
(-0.0775557 0.0618863 1.35891e-20)
(-0.0944789 0.0693601 -8.72602e-20)
(-0.112937 0.0757869 8.51044e-20)
(-0.132903 0.0814759 -1.83936e-19)
(-0.154312 0.086705 -1.36819e-20)
(-0.177076 0.0916848 -1.01033e-20)
(-0.201098 0.0965469 -1.36416e-19)
(-0.226274 0.101359 9.19185e-22)
(-0.2525 0.106135 1.35365e-19)
(-0.279669 0.110847 2.38911e-19)
(-0.307674 0.115444 -1.18482e-19)
(-0.336412 0.119862 3.83727e-20)
(-0.365783 0.124038 -1.55658e-19)
(-0.395688 0.127914 -6.48366e-20)
(-0.426037 0.131441 -1.25497e-19)
(-0.456747 0.134582 3.34503e-20)
(-0.487743 0.137312 -9.70413e-20)
(-0.518961 0.139615 -1.14841e-19)
(-0.550339 0.141489 5.75843e-20)
(-0.581824 0.142945 -5.60304e-20)
(-0.613371 0.144003 -2.65239e-20)
(-0.644952 0.144693 4.84797e-20)
(-0.676552 0.145045 -3.77554e-20)
(-0.708159 0.145095 -1.20159e-21)
(-0.739766 0.14488 -2.31561e-22)
(-0.771371 0.144438 1.18569e-19)
(-0.802974 0.143805 -8.46684e-20)
(-0.83458 0.143018 2.61439e-20)
(-0.866194 0.14211 -7.7309e-20)
(-0.89782 0.141114 -4.35105e-20)
(-0.92946 0.140058 7.90055e-20)
(-0.961113 0.138965 4.32135e-21)
(-0.992771 0.137853 6.82445e-21)
(-1.02443 0.136732 -7.96413e-20)
(-1.05608 0.135603 -1.81474e-19)
(-1.08771 0.134469 -9.76497e-20)
(-1.11933 0.133329 -3.63476e-20)
(-1.15092 0.132183 7.49012e-20)
(-1.18249 0.131028 2.97703e-20)
(-1.21402 0.129862 1.79747e-20)
(-1.24552 0.12868 -8.60748e-20)
(-1.27696 0.127481 4.07729e-20)
(-1.30835 0.126259 2.65737e-20)
(-1.33967 0.12501 -6.48387e-20)
(-1.37091 0.12373 -1.17408e-19)
(-1.40205 0.122414 -4.57275e-20)
(-1.43309 0.121058 2.43998e-20)
(-1.464 0.119657 -1.68953e-19)
(-1.49476 0.118207 1.40063e-19)
(-1.52537 0.116704 -3.31729e-20)
(-1.55579 0.115143 -1.55768e-21)
(-1.58602 0.11352 -1.32752e-19)
(-1.61602 0.111833 1.74451e-20)
(-1.64576 0.110079 8.663e-20)
(-1.67524 0.108254 -5.2678e-20)
(-1.70441 0.106356 8.44667e-20)
(-1.73325 0.104382 5.90373e-20)
(-1.76173 0.102331 1.03885e-19)
(-1.78982 0.1002 -1.70537e-19)
(-1.81748 0.0979887 2.02363e-20)
(-1.8447 0.0956943 2.22318e-20)
(-1.87142 0.0933168 -3.95387e-20)
(-1.89762 0.0908545 7.20305e-20)
(-1.92326 0.0883077 -3.51347e-20)
(-1.94831 0.0856753 -4.4591e-21)
(-1.97272 0.0829582 -1.90105e-19)
(-1.99645 0.0801558 -8.91528e-20)
(-2.01948 0.0772694 5.04879e-20)
(-2.04175 0.0742987 6.14624e-20)
(-2.06323 0.0712455 6.08016e-20)
(-2.08387 0.0681095 -6.65084e-21)
(-2.10363 0.0648928 3.03734e-20)
(-2.12247 0.0615952 -1.0996e-19)
(-2.14035 0.058219 9.68817e-20)
(-2.15723 0.0547642 3.4846e-20)
(-2.17306 0.0512337 -2.32477e-20)
(-2.1878 0.0476279 -1.13765e-19)
(-2.20141 0.0439502 6.60326e-21)
(-2.21385 0.0402018 -2.51445e-20)
(-2.22508 0.0363859 -1.07699e-19)
(-2.23505 0.0325043 -9.79608e-20)
(-2.24374 0.0285596 -4.47627e-20)
(-2.25113 0.0245571 -6.80574e-20)
(-2.25718 0.0205059 -5.67757e-20)
(-2.26189 0.016421 -2.54688e-20)
(-2.26523 0.0123234 1.79092e-19)
(-2.26718 0.00823909 4.68802e-20)
(-2.26769 0.00418446 6.48776e-20)
(-2.26672 0.000146738 -1.42766e-19)
(-2.26417 -0.00389676 1.56081e-19)
(-2.25998 -0.00794449 5.67928e-20)
(-2.25412 -0.0119874 -2.82472e-20)
(-2.24653 -0.0160189 1.06534e-20)
(-2.2372 -0.0200331 1.11052e-19)
(-2.22611 -0.0240221 2.12355e-20)
(-2.21322 -0.0279777 -8.4239e-20)
(-2.19854 -0.0318908 1.99088e-20)
(-2.18205 -0.0357515 1.17185e-19)
(-2.16374 -0.0395496 -1.66656e-20)
(-2.14363 -0.0432743 1.66119e-20)
(-2.1217 -0.046915 9.5496e-20)
(-2.09798 -0.0504603 4.73389e-20)
(-2.07249 -0.0538991 -3.76541e-21)
(-2.04525 -0.0572198 -3.97565e-20)
(-2.01628 -0.0604114 -5.63746e-20)
(-1.98563 -0.0634624 3.51776e-20)
(-1.95334 -0.066362 -8.68629e-21)
(-1.91947 -0.069099 1.15758e-20)
(-1.88406 -0.0716633 6.51134e-20)
(-1.84719 -0.0740448 3.37438e-20)
(-1.80892 -0.0762342 7.5868e-21)
(-1.76934 -0.0782231 -3.1071e-21)
(-1.72853 -0.0800046 -2.94763e-20)
(-1.68657 -0.0815743 -3.82241e-20)
(-1.64357 -0.0829297 -2.52634e-20)
(-1.59962 -0.0840768 2.65371e-20)
(-1.55482 -0.0850159 -3.51642e-20)
(-1.50928 -0.0857294 -1.1457e-20)
(-1.46309 -0.0862225 -5.21216e-21)
(-1.41637 -0.0865128 8.87491e-21)
(-1.36921 -0.0865987 7.32819e-21)
(-1.32172 -0.0864819 1.28168e-21)
(-1.274 -0.0861676 -1.70706e-21)
(-1.22615 -0.0856629 -7.21812e-21)
(-1.17827 -0.084974 -6.27332e-22)
(-1.13047 -0.0841081 -1.24809e-20)
(-1.08284 -0.0830705 5.05793e-22)
(-1.03548 -0.0818717 6.76141e-21)
(-0.988465 -0.080524 -7.70647e-21)
(-0.941897 -0.0790435 -1.19534e-20)
(-0.895855 -0.0774428 2.97082e-20)
(-0.850411 -0.0757314 -4.52303e-21)