# vtk DataFile Version 2.0
track0
ASCII
DATASET POLYDATA
POINTS 10859 float
-0.0205 0.001 1e-05
-0.0202034 0.00100023 1e-05
-0.0199069 0.00100077 1e-05
-0.0196103 0.0010015 1e-05
-0.0193137 0.00100243 1e-05
-0.0190172 0.00100355 1e-05
-0.0187132 0.00100513 1e-05
-0.0184093 0.00100626 1e-05
-0.0181054 0.00100735 1e-05
-0.0178015 0.0010084 1e-05
-0.0174976 0.0010094 1e-05
-0.0172058 0.0010107 1e-05
-0.016914 0.00101142 1e-05
-0.0166222 0.00101211 1e-05
-0.0163305 0.00101277 1e-05
-0.0160387 0.00101339 1e-05
-0.0157586 0.00101435 1e-05
-0.0154784 0.00101492 1e-05
-0.0151983 0.00101552 1e-05
-0.0149182 0.00101617 1e-05
-0.0146381 0.00101686 1e-05
-0.0143692 0.00101784 1e-05
-0.0141002 0.0010186 1e-05
-0.0138313 0.00101941 1e-05
-0.0135624 0.00102027 1e-05
-0.0132934 0.00102119 1e-05
-0.0130353 0.00102231 1e-05
-0.0127771 0.0010233 1e-05
-0.0125189 0.00102433 1e-05
-0.0122607 0.00102539 1e-05
-0.0120025 0.0010265 1e-05
-0.0117547 0.00102771 1e-05
-0.0115068 0.00102884 1e-05
-0.0112589 0.00103001 1e-05
-0.0110111 0.0010312 1e-05
-0.0107632 0.00103242 1e-05
-0.0105252 0.00103365 1e-05
-0.0102873 0.00103486 1e-05
-0.0100493 0.00103609 1e-05
-0.00981133 0.00103734 1e-05
-0.00957337 0.0010386 1e-05
-0.009512 0.00103893 1e-05
-0.00945063 0.00103926 1e-05
-0.00938927 0.00103959 1e-05
-0.0093279 0.00103992 1e-05
-0.00926662 0.00104025 1e-05
-0.00909951 0.00104116 1e-05
-0.00893241 0.00104207 1e-05
-0.0087653 0.00104298 1e-05
-0.00859819 0.0010439 1e-05
-0.00843108 0.00104483 1e-05
-0.00821175 0.00104604 1e-05
-0.00799242 0.00104726 1e-05
-0.00777309 0.00104849 1e-05
-0.00755376 0.00104972 1e-05
-0.00733443 0.00105095 1e-05
-0.00712387 0.00105212 1e-05
-0.0069133 0.00105331 1e-05
-0.00670273 0.00105449 1e-05
-0.00649217 0.00105567 1e-05
-0.0062816 0.00105685 1e-05
-0.00607944 0.00105798 1e-05
-0.00587729 0.0010591 1e-05
-0.00567514 0.00106023 1e-05
-0.00547298 0.00106135 1e-05
-0.00527083 0.00106248 1e-05
-0.00507675 0.00106354 1e-05
-0.00488267 0.0010646 1e-05
-0.0046886 0.00106566 1e-05
-0.00449452 0.00106672 1e-05
-0.00430044 0.00106777 1e-05
-0.00411412 0.00106876 1e-05
-0.0039278 0.00106976 1e-05
-0.00374147 0.00107075 1e-05
-0.00355515 0.00107173 1e-05
-0.00336883 0.0010727 1e-05
-0.00318995 0.00107362 1e-05
-0.00301107 0.00107454 1e-05
-0.00283219 0.00107545 1e-05
-0.00265331 0.00107635 1e-05
-0.00247443 0.00107724 1e-05
-0.0023027 0.00107808 1e-05
-0.00213097 0.00107891 1e-05
-0.00195924 0.00107973 1e-05
-0.0017875 0.00108054 1e-05
-0.00161577 0.00108134 1e-05
-0.0014509 0.00108208 1e-05
-0.00128603 0.00108282 1e-05
-0.00112116 0.00108354 1e-05
-0.000956289 0.00108424 1e-05
-0.000791418 0.00108492 1e-05
-0.000633135 0.00108555 1e-05
-0.000474851 0.00108616 1e-05
-0.000316567 0.00108675 1e-05
-0.000158283 0.0010873 1e-05
-9.04147e-21 0.00108783 1e-05
0.000105677 0.00108817 1e-05
0.000211355 0.00108849 1e-05
0.000317032 0.00108879 1e-05
0.00042271 0.00108908 1e-05
0.000528387 0.00108936 1e-05
0.000634886 0.00108961 1e-05
0.000741385 0.00108986 1e-05
0.000847885 0.0010901 1e-05
0.000954384 0.00109032 1e-05
0.00106088 0.00109053 1e-05
0.00116821 0.00109073 1e-05
0.00127554 0.00109092 1e-05
0.00138286 0.0010911 1e-05
0.00149019 0.00109127 1e-05
0.00159752 0.00109143 1e-05
0.00170568 0.00109157 1e-05
0.00181384 0.0010917 1e-05
0.001922 0.00109183 1e-05
0.00203016 0.00109194 1e-05
0.00213833 0.00109204 1e-05
0.00224733 0.00109212 1e-05
0.00235633 0.00109221 1e-05
0.00246533 0.00109228 1e-05
0.00257434 0.00109234 1e-05
0.00268334 0.0010924 1e-05
0.00279319 0.00109243 1e-05
0.00290304 0.00109247 1e-05
0.00301289 0.0010925 1e-05
0.00312274 0.00109253 1e-05
0.00323259 0.00109254 1e-05
0.00334329 0.00109255 1e-05
0.003454 0.00109255 1e-05
0.0035647 0.00109255 1e-05
0.0036754 0.00109254 1e-05
0.00378611 0.00109253 1e-05
0.00389767 0.0010925 1e-05
0.00400924 0.00109247 1e-05
0.0041208 0.00109244 1e-05
0.00423237 0.0010924 1e-05
0.00434393 0.00109236 1e-05
0.00445636 0.00109231 1e-05
0.00456879 0.00109225 1e-05
0.00468123 0.00109219 1e-05
0.00479366 0.00109213 1e-05
0.00490609 0.00109206 1e-05
0.0050194 0.00109197 1e-05
0.0051327 0.00109189 1e-05
0.00524601 0.0010918 1e-05
0.00535932 0.00109171 1e-05
0.00547262 0.00109161 1e-05
0.00558681 0.0010915 1e-05
0.005701 0.00109139 1e-05
0.00581518 0.00109128 1e-05
0.00592937 0.00109116 1e-05
0.00604356 0.00109103 1e-05
0.00609327 0.00109097 1e-05
0.00614298 0.00109091 1e-05
0.0061927 0.00109085 1e-05
0.00624241 0.00109079 1e-05
0.00629113 0.00109073 1e-05
0.00635669 0.00109065 1e-05
0.00642225 0.00109057 1e-05
0.00648781 0.00109048 1e-05
0.00655337 0.00109039 1e-05
0.00661893 0.0010903 1e-05
0.0067349 0.00109014 1e-05
0.00685087 0.00108997 1e-05
0.00696684 0.0010898 1e-05
0.00708281 0.00108963 1e-05
0.00719878 0.00108944 1e-05
0.00731565 0.00108925 1e-05
0.00743252 0.00108905 1e-05
0.00754939 0.00108885 1e-05
0.00766626 0.00108865 1e-05
0.00778313 0.00108844 1e-05
0.00790091 0.00108821 1e-05
0.00801869 0.00108799 1e-05
0.00813647 0.00108776 1e-05
0.00825425 0.00108752 1e-05
0.00837203 0.00108728 1e-05
0.00849073 0.00108702 1e-05
0.00860942 0.00108676 1e-05
0.00872812 0.0010865 1e-05
0.00884682 0.00108624 1e-05
0.00896551 0.00108597 1e-05
0.00908513 0.00108567 1e-05
0.00920475 0.00108539 1e-05
0.00932437 0.00108509 1e-05
0.00944398 0.0010848 1e-05
0.0095636 0.0010845 1e-05
0.00968415 0.00108416 1e-05
0.0098047 0.00108384 1e-05
0.00992525 0.00108352 1e-05
0.0100458 0.00108319 1e-05
0.0101663 0.00108286 1e-05
0.0102878 0.00108248 1e-05
0.0104093 0.00108213 1e-05
0.0105308 0.00108177 1e-05
0.0106523 0.00108141 1e-05
0.0107738 0.00108104 1e-05
0.0108962 0.00108063 1e-05
0.0110186 0.00108024 1e-05
0.0111411 0.00107985 1e-05
0.0112635 0.00107945 1e-05
0.0113859 0.00107904 1e-05
0.0115093 0.00107859 1e-05
0.0116327 0.00107817 1e-05
0.0117561 0.00107773 1e-05
0.0118795 0.0010773 1e-05
0.0120028 0.00107685 1e-05
0.0121272 0.00107636 1e-05
0.0122515 0.00107589 1e-05
0.0123759 0.00107542 1e-05
0.0125002 0.00107494 1e-05
0.0126245 0.00107445 1e-05
0.0127498 0.00107392 1e-05
0.0128752 0.00107341 1e-05
0.0130005 0.00107289 1e-05
0.0131258 0.00107237 1e-05
0.0132511 0.00107184 1e-05
0.0133774 0.00107126 1e-05
0.0135036 0.0010707 1e-05
0.0136299 0.00107014 1e-05
0.0137562 0.00106957 1e-05
0.0138825 0.00106899 1e-05
0.0140098 0.00106836 1e-05
0.014137 0.00106775 1e-05
0.0142643 0.00106714 1e-05
0.0143915 0.00106652 1e-05
0.0145188 0.00106588 1e-05
0.0146471 0.00106521 1e-05
0.0147753 0.00106455 1e-05
0.0149036 0.00106388 1e-05
0.0150318 0.0010632 1e-05
0.0151601 0.00106251 1e-05
0.0152893 0.00106178 1e-05
0.0154186 0.00106106 1e-05
0.0155478 0.00106033 1e-05
0.0156771 0.0010596 1e-05
0.0158063 0.00105885 1e-05
0.0159366 0.00105806 1e-05
0.0160668 0.00105728 1e-05
0.0161971 0.00105649 1e-05
0.0163274 0.00105569 1e-05
0.0164576 0.00105487 1e-05
0.0165889 0.00105403 1e-05
0.0167201 0.00105318 1e-05
0.0168514 0.00105232 1e-05
0.0169827 0.00105145 1e-05
0.0171139 0.00105057 1e-05
0.0172462 0.00104966 1e-05
0.0173785 0.00104874 1e-05
0.0175108 0.00104781 1e-05
0.0176431 0.00104687 1e-05
0.0177754 0.00104591 1e-05
0.0179087 0.00104493 1e-05
0.018042 0.00104394 1e-05
0.0181753 0.00104293 1e-05
0.0183087 0.00104191 1e-05
0.018442 0.00104087 1e-05
0.0185763 0.00103982 1e-05
0.0187107 0.00103875 1e-05
0.018845 0.00103766 1e-05
0.0189794 0.00103655 1e-05
0.0191137 0.00103543 1e-05
0.0192491 0.0010343 1e-05
0.0193845 0.00103314 1e-05
0.0195199 0.00103196 1e-05
0.0196553 0.00103076 1e-05
0.0197907 0.00102956 1e-05
0.0199272 0.00102835 1e-05
0.0200636 0.0010271 1e-05
0.0202001 0.00102583 1e-05
0.0203365 0.00102453 1e-05
0.020473 0.00102324 1e-05
0.0206105 0.00102194 1e-05
0.020748 0.0010206 1e-05
0.0208855 0.00101923 1e-05
0.021023 0.00101784 1e-05
0.0211606 0.00101645 1e-05
0.0212991 0.00101506 1e-05
0.0214377 0.00101362 1e-05
0.0215763 0.00101215 1e-05
0.0217149 0.00101065 1e-05
0.0218535 0.00100917 1e-05
0.0219931 0.00100768 1e-05
0.0221328 0.00100614 1e-05
0.0222724 0.00100456 1e-05
0.0224121 0.00100296 1e-05
0.0225517 0.00100137 1e-05
0.0226925 0.000999774 1e-05
0.0228332 0.000998131 1e-05
0.022974 0.00099644 1e-05
0.0231147 0.000994729 1e-05
0.0232555 0.000993029 1e-05
0.0233973 0.000991325 1e-05
0.0235391 0.000989571 1e-05
0.023681 0.000987765 1e-05
0.0238228 0.00098594 1e-05
0.0239647 0.000984125 1e-05
0.0241076 0.000982307 1e-05
0.0242505 0.000980435 1e-05
0.0243935 0.00097851 1e-05
0.0245364 0.000976565 1e-05
0.0246794 0.000974631 1e-05
0.0248234 0.000972692 1e-05
0.0249675 0.000970699 1e-05
0.0251115 0.000968651 1e-05
0.0252556 0.000966585 1e-05
0.0253996 0.000964526 1e-05
0.0255448 0.000962461 1e-05
0.02569 0.00096034 1e-05
0.0258351 0.000958169 1e-05
0.0259803 0.000955978 1e-05
0.0261255 0.000953788 1e-05
0.0262718 0.00095159 1e-05
0.0264181 0.000949334 1e-05
0.0265644 0.000947033 1e-05
0.0267107 0.00094471 1e-05
0.026857 0.000942383 1e-05
0.0270044 0.000940046 1e-05
0.0271519 0.00093765 1e-05
0.0272993 0.000935216 1e-05
0.0274467 0.000932759 1e-05
0.0275942 0.00093029 1e-05
0.0277428 0.000927809 1e-05
0.0278914 0.00092527 1e-05
0.0280399 0.000922697 1e-05
0.0281885 0.0009201 1e-05
0.0283371 0.000917483 1e-05
0.0284869 0.00091485 1e-05
0.0286366 0.000912158 1e-05
0.0287863 0.000909436 1e-05
0.0289361 0.000906689 1e-05
0.0290858 0.000903917 1e-05
0.0292367 0.000901125 1e-05
0.0293876 0.000898276 1e-05
0.0295385 0.000895401 1e-05
0.0296894 0.000892499 1e-05
0.0298403 0.000889571 1e-05
0.0299924 0.000886613 1e-05
0.0301445 0.000883604 1e-05
0.0302966 0.000880568 1e-05
0.0304486 0.000877504 1e-05
0.0306007 0.000874412 1e-05
0.030754 0.000871281 1e-05
0.0309072 0.000868105 1e-05
0.0310605 0.000864901 1e-05
0.0312138 0.000861667 1e-05
0.031367 0.000858403 1e-05
0.0315215 0.000855092 1e-05
0.0316759 0.000851742 1e-05
0.0318304 0.000848361 1e-05
0.0319848 0.000844949 1e-05
0.0321393 0.000841505 1e-05
0.0321799 0.000840592 1e-05
0.0322205 0.000839677 1e-05
0.032261 0.00083876 1e-05
0.0323016 0.00083784 1e-05
0.0323414 0.000836937 1e-05
0.0324566 0.000834313 1e-05
0.0325718 0.000831672 1e-05
[...]
POINT_DATA 10859
 FIELD attributes 1
U 3 10859 float
10.0003 	0.00776052 	0 10.0019 	0.0181324 	0 10.0037 	0.02475 	0 10.0054 	0.031323 	0 10.0072 	0.0378516 	0 10.0157 	0.0520558 	0 10.0157 	0.0373529 	0 10.0203 	0.0359025 	0 10.0249 	0.0344556 	0 10.0296 	0.0330122 	0 10.0406 	0.0447369 	0 10.0403 	0.0248142 	0 10.0455 	0.0237367 	0 10.0508 	0.0226556 	0 10.0561 	0.0215712 	0 10.0661 	0.0344243 	0 10.0666 	0.0203603 	0 10.0712 	0.0217945 	0 10.0759 	0.0232354 	0 10.0805 	0.024683 	0 10.0879 	0.0370306 	0 10.0897 	0.0283147 	0 10.0938 	0.0303894 	0 10.0978 	0.0324732 	0 10.1018 	0.0345662 	0 10.1065 	0.0437655 	0 10.1096 	0.0386617 	0 10.113 	0.0402679 	0 10.1165 	0.04188 	0 10.1199 	0.0434981 	0 10.1224 	0.0490894 	0 10.126 	0.0465238 	0 10.1286 	0.0475931 	0 10.1312 	0.0486655 	0 10.1338 	0.0497411 	0 10.1352 	0.0525444 	0 10.1383 	0.0516901 	0 10.1402 	0.0523737 	0 10.142 	0.053059 	0 10.1439 	0.0537458 	0 10.1453 	0.0547076 	0 10.146 	0.0545748 	0 10.1464 	0.0546809 	0 10.1467 	0.0547871 	0 10.147 	0.0548934 	0 10.1474 	0.0549995 	0 10.1483 	0.0552854 	0 10.1492 	0.0555715 	0 10.1502 	0.055858 	0 10.1511 	0.0561449 	0 10.1522 	0.0561685 	0 10.1529 	0.0565253 	0 10.1537 	0.0566927 	0 10.1545 	0.0568603 	0 10.1553 	0.0570281 	0 10.1564 	0.056692 	0 10.1568 	0.0570554 	0 10.1572 	0.0570527 	0 10.1577 	0.05705 	0 10.1581 	0.0570472 	0 10.1587 	0.0564062 	0 10.1591 	0.0567429 	0 10.1592 	0.056608 	0 10.1594 	0.0564731 	0 10.1595 	0.0563381 	0 10.1597 	0.0555025 	0 10.1602 	0.0557816 	0 10.1601 	0.0555338 	0 10.16 	0.0552859 	0 10.1599 	0.0550378 	0 10.1595 	0.0540728 	0 10.1605 	0.0542621 	0 10.1602 	0.053899 	0 10.16 	0.0535357 	0 10.1597 	0.0531723 	0 10.1586 	0.0520988 	0 10.1603 	0.0521565 	0 10.1599 	0.0516566 	0 10.1596 	0.0511565 	0 10.1592 	0.0506563 	0 10.1574 	0.0494666 	0 10.1599 	0.0493298 	0 10.1595 	0.0486287 	0 10.1591 	0.0479275 	0 10.1588 	0.0472261 	0 10.156 	0.0458492 	0 10.1594 	0.04535 	0 10.159 	0.0442542 	0 10.1585 	0.0431582 	0 10.1581 	0.042062 	0 10.1543 	0.040312 	0 10.1585 	0.0392016 	1.95178e-21 10.1578 	0.0374942 	6.1518e-21 10.1571 	0.0357865 	1.03532e-20 10.1565 	0.0340785 	1.45559e-20 10.1514 	0.0319449 	1.44806e-20 10.1559 	0.0309262 	1.97421e-20 10.1548 	0.0293632 	1.54047e-20 10.1537 	0.0278001 	1.10662e-20 10.1526 	0.0262368 	6.72682e-21 10.1469 	0.0243818 	-3.34124e-21 10.151 	0.0237453 	-2.00347e-20 10.1496 	0.022553 	-2.58207e-20 10.1482 	0.0213605 	-3.16029e-20 10.1467 	0.0201677 	-3.73812e-20 10.1407 	0.0185855 	-2.14968e-20 10.1446 	0.0181612 	-1.87758e-20 10.1431 	0.0170035 	-2.40812e-20 10.1416 	0.0158455 	-2.93914e-20 10.1401 	0.0146871 	-3.47065e-20 10.134 	0.0130196 	-4.40248e-20 10.1379 	0.0127995 	-5.01009e-20 10.1363 	0.0116811 	-4.58683e-20 10.1348 	0.0105622 	-4.16361e-20 10.1332 	0.00944294 	-3.74042e-20 10.1273 	0.00766026 	-3.1702e-20 10.1308 	0.00771841 	-1.25174e-20 10.1291 	0.00681812 	-4.6916e-21 10.1274 	0.0059174 	3.13033e-21 10.1257 	0.00501623 	1.09484e-20 10.1199 	0.00332554 	6.77912e-21 10.1228 	0.00357898 	3.22954e-21 10.121 	0.00291239 	7.15088e-22 10.1191 	0.00224544 	-1.79918e-21 10.1172 	0.00157812 	-4.31325e-21 10.1116 	0.000104617 	-4.17784e-21 10.1139 	0.000367105 	6.72491e-21 10.1118 	-0.000171861 	9.00098e-21 10.1098 	-0.000711119 	1.12747e-20 10.1077 	-0.00125067 	1.3546e-20 10.1023 	-0.00249565 	6.50741e-21 10.1039 	-0.00236356 	1.90975e-20 10.1016 	-0.00285996 	1.9557e-20 10.0994 	-0.00335661 	2.00136e-20 10.0971 	-0.00385352 	2.04672e-20 10.092 	-0.00488283 	1.0217e-20 10.0927 	-0.00492093 	1.41725e-20 10.0902 	-0.00539971 	1.51295e-20 10.0876 	-0.00587871 	1.6086e-20 10.0851 	-0.00635793 	1.70421e-20 10.0804 	-0.00717989 	1.75424e-20 10.08 	-0.00737859 	2.33306e-20 10.0772 	-0.00784912 	2.632e-20 10.0743 	-0.00831983 	2.9308e-20 10.0714 	-0.00879073 	3.22945e-20 10.0671 	-0.00943568 	3.35994e-20 10.0655 	-0.00976416 	2.41081e-20 10.0623 	-0.0102293 	1.48544e-20 10.059 	-0.0106946 	5.60061e-21 10.0558 	-0.01116 	-3.65327e-21 10.0521 	-0.0116693 	-1.30041e-20 10.051 	-0.011832 	-1.69485e-20 10.0495 	-0.0120303 	-2.08543e-20 10.0479 	-0.0122287 	-2.47599e-20 10.0463 	-0.012427 	-2.86655e-20 10.0448 	-0.0126214 	-3.24933e-20 10.0427 	-0.0128845 	-3.78263e-20 10.0406 	-0.0131476 	-4.31596e-20 10.0385 	-0.0134107 	-4.84935e-20 10.0364 	-0.0136739 	-5.38277e-20 10.0299 	-0.0140627 	-5.81876e-20 10.03 	-0.0143895 	-4.88907e-20 10.0259 	-0.0148482 	-3.73972e-20 10.0217 	-0.015307 	-2.59071e-20 10.0176 	-0.015766 	-1.44206e-20 10.001 	-0.0166369 	1.67542e-21 10.0084 	-0.0166806 	1.40638e-20 10.0037 	-0.0171373 	2.21503e-20 9.99914 	-0.0175942 	3.0239e-20 9.99453 	-0.0180513 	3.83297e-20 9.96877 	-0.0192578 	3.76677e-20 9.98381 	-0.0189868 	3.34516e-20 9.97868 	-0.0194415 	2.45085e-20 9.97356 	-0.0198964 	1.55661e-20 9.96842 	-0.0203515 	6.62414e-21 9.93315 	-0.0219101 	-5.31595e-21 9.95606 	-0.0213227 	-3.41369e-20 9.95039 	-0.0217743 	-4.45474e-20 9.94471 	-0.022226 	-5.49633e-20 9.93902 	-0.0226778 	-6.53845e-20 9.89414 	-0.0245759 	-4.46238e-20 9.92487 	-0.0236955 	-5.756e-20 9.91863 	-0.0241433 	-7.22057e-20 9.91238 	-0.0245914 	-8.68498e-20 9.90612 	-0.0250396 	-1.01492e-19 9.85179 	-0.027242 	-1.10603e-19 9.89008 	-0.0261104 	-1.20829e-19 9.88325 	-0.0265561 	-1.14492e-19 9.87642 	-0.0270022 	-1.08155e-19 9.86958 	-0.0274484 	-1.01818e-19 9.80624 	-0.0299056 	-7.8751e-20 9.85155 	-0.0285787 	-3.70957e-20 9.84413 	-0.0290263 	-2.16344e-20 9.83671 	-0.0294742 	-6.16708e-21 9.82929 	-0.0299224 	9.30638e-21 9.75762 	-0.0325754 	-1.08066e-20 9.80921 	-0.0311178 	-1.04083e-20 9.80121 	-0.0315723 	-1.93433e-20 9.7932 	-0.0320272 	-2.82755e-20 9.78518 	-0.0324823 	-3.72048e-20 9.70612 	-0.0352655 	-5.66464e-20 9.76303 	-0.0337465 	-5.92692e-20 9.75444 	-0.0342134 	-3.98126e-20 9.74584 	-0.0346807 	-2.03568e-20 9.73724 	-0.0351484 	-9.01979e-22 9.65191 	-0.0379931 	1.86252e-20 9.71305 	-0.0364826 	3.18452e-20 9.70389 	-0.0369667 	4.15865e-20 9.69472 	-0.0374511 	5.13272e-20 9.68554 	-0.037936 	6.10673e-20 9.59524 	-0.0407683 	6.81462e-20 9.65939 	-0.0393448 	1.61492e-19 9.64966 	-0.0398504 	1.65035e-19 9.63993 	-0.0403565 	1.68587e-19 9.63019 	-0.0408631 	1.72147e-19 9.5363 	-0.0436026 	7.77742e-20 9.60214 	-0.0423435 	1.08442e-19 9.59187 	-0.042875 	1.15249e-19 9.5816 	-0.0434071 	1.22058e-19 9.57131 	-0.0439398 	1.28869e-19 9.47536 	-0.0465105 	9.29514e-20 9.54063 	-0.0454997 	4.88498e-20 9.53082 	-0.0460434 	3.25928e-20 9.52003 	-0.046608 	1.66922e-20 9.5037 	-0.0472873 	3.92596e-21 9.41265 	-0.0495106 	3.36442e-20 9.47041 	-0.0489045 	2.33755e-20 9.46673 	-0.0493758 	2.20273e-20 9.45545 	-0.0499807 	2.17777e-20 9.43228 	-0.0507888 	2.41751e-20 9.34846 	-0.0526318 	4.01011e-20 9.39878 	-0.0524028 	5.38022e-20 9.4001 	-0.0528688 	5.70654e-20 9.38838 	-0.0535204 	5.75551e-20 9.35969 	-0.0543931 	5.29018e-20 9.28311 	-0.0558892 	3.37237e-20 9.32618 	-0.0560267 	2.88989e-20 9.33136 	-0.0565531 	2.72862e-20 9.31923 	-0.057258 	2.71393e-20 9.28632 	-0.058131 	2.61568e-20 9.21685 	-0.0592997 	2.37046e-20 9.25299 	-0.0598117 	-7.9708e-21 9.26095 	-0.060468 	-2.00779e-20 9.24844 	-0.0612297 	-1.79795e-20 9.21256 	-0.0620322 	1.18836e-21 9.14995 	-0.0628814 	3.9881e-20 9.17959 	-0.0637669 	7.51951e-20 9.18932 	-0.0646209 	9.05975e-20 9.17646 	-0.065439 	8.33997e-20 9.13877 	-0.0660967 	5.42184e-20 9.08264 	-0.0666357 	8.72161e-21 9.10628 	-0.0678809 	-5.54698e-20 9.11691 	-0.0689954 	-9.34162e-20 9.10373 	-0.0698696 	-8.33127e-20 9.06525 	-0.070315 	-2.25156e-20 9.01512 	-0.0705639 	6.15721e-20 9.03335 	-0.0721499 	1.2537e-19 9.04414 	-0.0735833 	1.75563e-19 9.03068 	-0.0745117 	1.81168e-19 8.99226 	-0.0746808 	1.32444e-19 8.9476 	-0.0746606 	7.01554e-20 8.961 	-0.0765559 	-5.13784e-20 8.97137 	-0.0783528 	-1.62597e-19 8.95765 	-0.0793332 	-1.89957e-19 8.92 	-0.0791765 	-1.12581e-19 8.88024 	-0.0789202 	-2.60072e-20 8.8894 	-0.081095 	-1.73125e-20 8.89848 	-0.0832726 	-8.61955e-21 8.88406 	-0.0842634 	-1.17212e-20 8.84864 	-0.0838051 	-8.86027e-21 8.81322 	-0.0833467 	-5.99964e-21 8.81871 	-0.0857663 	1.43501e-19 8.8241 	-0.088189 	2.93007e-19 8.80998 	-0.0891835 	2.91833e-19 8.77831 	-0.0885533 	1.44886e-19 8.74666 	-0.0879228 	-2.06538e-21 8.74902 	-0.0905371 	-4.45897e-20 8.75127 	-0.0931547 	-8.71029e-20 8.73754 	-0.0941544 	-9.13892e-20 8.70911 	-0.093412 	-6.77617e-20 8.6807 	-0.0926691 	-4.41334e-20 8.68041 	-0.0954683 	-1.40655e-19 8.68001 	-0.0982711 	-2.37178e-19 8.66677 	-0.0992781 	-2.38965e-19 8.64109 	-0.0984415 	-1.48873e-19 8.61543 	-0.0976042 	-5.87756e-20 8.61294 	-0.100533 	-1.48068e-19 8.61033 	-0.103466 	-2.37377e-19 8.59766 	-0.104476 	-2.23214e-19 8.57429 	-0.103592 	-1.06181e-19 8.55094 	-0.102707 	1.08586e-20 8.54659 	-0.105728 	2.47044e-20 8.54213 	-0.108753 	3.85364e-20 8.5301 	-0.109764 	5.0781e-20 8.50867 	-0.108868 	4.89127e-20 8.48727 	-0.107972 	4.70441e-20 8.4814 	-0.111056 	7.1648e-20 8.47541 	-0.114143 	9.62533e-20 8.46409 	-0.115152 	8.15228e-20 8.44429 	-0.114267 	4.16831e-20 8.4245 	-0.113381 	1.84387e-21 8.41741 	-0.116489 	-4.27724e-20 8.41004 	-0.119518 	-8.60154e-20 8.39906 	-0.120474 	-9.46491e-20 8.38116 	-0.119781 	-4.93941e-20 8.3627 	-0.118951 	3.44414e-22 8.3546 	-0.122089 	-1.77385e-20 8.34587 	-0.1248 	-2.77235e-20 8.335 	-0.125808 	-5.55782e-21 8.31925 	-0.125491 	4.76753e-21 8.30186 	-0.124727 	1.10942e-20 8.29295 	-0.127895 	3.14067e-20 8.28329 	-0.130278 	4.72527e-20 8.27248 	-0.131323 	5.54973e-20 8.25842 	-0.131369 	4.63073e-20 8.2419 	-0.130644 	2.36828e-20 8.2323 	-0.133757 	5.10549e-20 8.22206 	-0.135759 	5.44689e-20 8.21129 	-0.136831 	3.78698e-20 8.19861 	-0.137267 	1.81296e-20 8.1828 	-0.136641 	-6.84855e-21 8.17261 	-0.139688 	-1.09987e-19 8.16203 	-0.141343 	-1.335e-19 8.15129 	-0.142472 	-1.26853e-19 8.13971 	-0.143319 	-1.02117e-19 8.12448 	-0.142856 	6.44304e-21 8.11378 	-0.145919 	6.17249e-20 8.10303 	-0.147262 	6.86132e-20 8.09224 	-0.14844 	7.08144e-20 8.08139 	-0.149619 	7.30014e-20 8.06675 	-0.149271 	3.51562e-20 8.05563 	-0.152065 	3.22851e-20 8.04484 	-0.153276 	1.96744e-20 8.03399 	-0.154488 	7.05838e-21 8.02309 	-0.1557 	-5.5628e-21 8.00957 	-0.155798 	-1.52817e-20 7.9982 	-0.158211 	-4.25801e-20 7.98734 	-0.159463 	-3.5984e-20 7.97642 	-0.160715 	-2.93804e-20 7.96545 	-0.161969 	-2.27693e-20 7.95284 	-0.162477 	1.63884e-21 7.94139 	-0.164536 	1.29891e-20 7.93044 	-0.165823 	1.00779e-20 7.91943 	-0.167111 	7.15468e-21 7.90837 	-0.1684 	4.21939e-21 7.89645 	-0.169288 	-9.69142e-21 7.88505 	-0.171031 	-3.05783e-20 7.87398 	-0.17237 	-1.9455e-20 7.86286 	-0.173709 	-8.29507e-21 7.85168 	-0.175049 	2.90166e-21 7.8403 	-0.176311 	2.01098e-20 7.83728 	-0.176752 	2.37869e-20 7.83436 	-0.177108 	2.26971e-20 7.83144 	-0.177465 	2.16059e-20 7.82851 	-0.177821 	2.05131e-20 7.82564 	-0.17817 	1.94413e-20 7.81692 	-0.179189 	1.86545e-20 7.80818 	-0.180208 	1.78679e-20 7.79939 	-0.181229 	1.70815e-20 7.79058 	-0.182249 	1.62953e-20 7.78305 	-0.18306 	1.46832e-20 7.77059 	-0.184651 	3.30532e-21 7.75865 	-0.186036 	-8.78834e-21 7.74665 	-0.187422 	-2.08818e-20 7.73458 	-0.188809 	-3.2975e-20 7.72554 	-0.189712 	-4.15392e-20 7.71215 	-0.19162 	-4.09814e-20 7.7 	-0.193054 	-2.64186e-20 7.6878 	-0.194489 	-1.18651e-20 7.67552 	-0.195925 	2.67893e-21 7.6679 	-0.196621 	3.08066e-20 7.65352 	-0.198831 	6.40158e-20 7.64111 	-0.200312 	6.35477e-20 7.62863 	-0.201794 	6.30977e-20 7.61609 	-0.203278 	6.26659e-20 7.60983 	-0.203776 	1.83681e-20 7.59452 	-0.206182 	-1.58113e-20 7.58164 	-0.207742 	-2.9551e-20 7.5689 	-0.209237 	-4.16995e-20 7.55761 	-0.210504 	-4.67847e-20 7.55132 	-0.211012 	-2.84557e-20 7.53577 	-0.213407 	-3.62058e-20 7.52179 	-0.215264 	-3.14351e-20 7.50878 	-0.216781 	-1.87562e-20 7.49903 	-0.217807 	-1.0441e-21 7.49238 	-0.218371 	2.14059e-20 7.47658 	-0.220779 	3.65664e-20 7.46143 	-0.222936 	4.65036e-20 7.44812 	-0.224465 	4.33701e-20 7.4399 	-0.225224 	3.27583e-20 7.43286 	-0.225799 	2.03613e-20 7.41679 	-0.228202 	8.37553e-20 7.40061 	-0.230606 	1.4715e-19 7.38754 	-0.232072 	1.35851e-19 7.38018 	-0.232645 	6.10595e-20 7.37279 	-0.233217 	-1.37362e-20 7.35658 	-0.235612 	-4.67286e-21 7.34027 	-0.238009 	4.40249e-21 7.32787 	-0.239502 	5.75669e-21 7.31996 	-0.240096 	6.77232e-23 7.31202 	-0.240691 	-5.61734e-21 7.29554 	-0.243078 	4.30737e-20 7.27896 	-0.245467 	9.17797e-20 7.26717 	-0.246981 	9.81923e-20 7.25876 	-0.247569 	6.40621e-20 7.25031 	-0.248158 	2.99319e-20 7.23354 	-0.250499 	3.12131e-20 7.21706 	-0.252782 	3.20228e-20 7.20586 	-0.254238 	2.60668e-20 7.19657 	-0.254969 	2.6143e-20 7.1876 	-0.255568 	2.73297e-20 7.17051 	-0.257873 	1.276e-20 7.1556 	-0.259825 	3.98617e-21 7.14395 	-0.261255 	3.72806e-21 7.13324 	-0.262302 	4.77626e-21 7.12371 	-0.262882 	7.41385e-21 7.10618 	-0.265135 	4.23285e-20 7.09278 	-0.266729 	5.32162e-20 7.08069 	-0.268107 	5.61893e-20 7.06865 	-0.26945 	5.80115e-20 7.05871 	-0.269976 	3.36727e-20 7.04147 	-0.272064 	8.04389e-20 7.02902 	-0.273369 	8.32444e-20 7.01651 	-0.274675 	8.60343e-20 7.00394 	-0.275982 	8.88085e-20 6.99265 	-0.276765 	7.07504e-20 6.97699 	-0.278448 	9.9236e-20 6.96413 	-0.279672 	9.24958e-20 6.95121 	-0.280897 	8.57286e-20 6.93824 	-0.282123 	7.8934e-20 6.9256 	-0.283198 	6.18315e-20 6.91945 	-0.283792 	6.37594e-20 6.9141 	-0.284256 	5.92855e-20 6.90874 	-0.28472 	5.48091e-20 6.90337 	-0.285184 	5.033e-20 6.89813 	-0.285637 	4.59579e-20 6.88984 	-0.286335 	3.93133e-20 6.88154 	-0.287033 	3.26628e-20 6.87322 	-0.287731 	2.60063e-20 6.86487 	-0.288429 	1.93438e-20 6.85682 	-0.288965 	2.10872e-20 6.84305 	-0.29024 	1.70034e-20 6.82885 	-0.291319 	9.33153e-21 6.81459 	-0.292398 	1.66561e-21 6.80027 	-0.293479 	-5.99435e-21 6.78678 	-0.294108 	-1.92854e-20 6.77324 	-0.295599 	-1.93122e-20 6.75868 	-0.296565 	-1.83721e-20 6.74408 	-0.297531 	-1.74308e-20 6.72952 	-0.298446 	-1.63485e-20 6.71618 	-0.298721 	-1.35714e-20 6.70251 	-0.300217 	1.29536e-20 6.68797 	-0.301253 	2.93713e-20 6.67304 	-0.302095 	4.15464e-20 6.65878 	-0.302587 	4.01517e-20 6.6452 	-0.302733 	2.53892e-20 6.63119 	-0.30408 	1.26513e-20 6.61692 	-0.30531 	1.88308e-21 6.60171 	-0.306009 	8.56436e-23 6.58784 	-0.306042 	6.32435e-21 6.57404 	-0.30603 	1.30923e-20 6.55973 	-0.307201 	2.664e-21 6.54536 	-0.308372 	-7.76903e-21 6.53088 	-0.308865 	-9.28624e-21 6.51697 	-0.308689 	-8.98665e-22 6.50305 	-0.308513 	7.48905e-21 6.48852 	-0.309504 	2.61115e-20 6.47394 	-0.310495 	4.4731e-20 6.46053 	-0.310851 	4.59539e-20 6.44655 	-0.310533 	2.76102e-20 6.43256 	-0.310216 	9.26435e-21 6.41786 	-0.311059 	4.48022e-21 6.40357 	-0.311706 	1.5536e-21 6.39046 	-0.311841 	3.45711e-21 6.37684 	-0.311643 	5.88305e-21 6.36282 	-0.311172 	8.73763e-21 6.34801 	-0.311865 	7.41345e-21 6.33444 	-0.312009 	7.96027e-21 6.32131 	-0.311953 	9.18692e-21 6.30816 	-0.311898 	1.04145e-20 6.29418 	-0.311229 	1.57825e-20 6.27968 	-0.311572 	2.06087e-20 6.26663 	-0.311293 	1.70284e-20 6.25358 	-0.311015 	1.34471e-20 6.24051 	-0.310736 	9.86461e-21 6.2271 	-0.310194 	3.04872e-21 6.21665 	-0.31008 	9.58997e-22 6.20685 	-0.309697 	3.49867e-23 6.19705 	-0.309313 	-8.88966e-22 6.18725 	-0.30893 	-1.81286e-21 6.17751 	-0.30855 	-2.72998e-21 6.17463 	-0.308429 	-3.19868e-21 6.17175 	-0.308309 	-3.66738e-21 6.16887 	-0.308189 	-4.13609e-21 6.16599 	-0.308069 	-4.60482e-21 6.16317 	-0.307859 	-4.65504e-21 6.15165 	-0.307223 	-5.40115e-21 6.13993 	-0.306502 	-6.80322e-21 6.12821 	-0.305781 	-8.20547e-21 6.11649 	-0.30506 	-9.60789e-21 6.10513 	-0.303871 	-1.32703e-20 6.09473 	-0.303351 	-1.5102e-20 6.0833 	-0.302405 	-1.57423e-20 6.07189 	-0.301458 	-1.63825e-20 6.06049 	-0.300511 	-1.70224e-20 6.04979 	-0.298713 	-1.23369e-20 6.04035 	-0.298217 	-5.68643e-21 6.02948 	-0.297113 	-1.52856e-21 6.01845 	-0.295937 	2.33363e-21 6.00772 	-0.294453 	4.5387e-21 5.99756 	-0.292353 	3.43964e-21 5.98851 	-0.291609 	3.71948e-21 5.97885 	-0.290597 	3.92208e-21 5.9683 	-0.289197 	4.01329e-21 5.95842 	-0.287125 	2.46146e-21 5.9488 	-0.284812 	3.21718e-22 5.94024 	-0.283834 	5.33752e-21 5.93168 	-0.282856 	1.03533e-20 5.9219 	-0.281174 	9.78919e-21 5.91283 	-0.278676 	1.02411e-21 5.90382 	-0.276177 	-7.73852e-21 5.8958 	-0.274988 	-7.50996e-21 5.88781 	-0.273799 	-7.2806e-21 5.87964 	-0.271877 	-6.74281e-21 5.8712 	-0.269222 	-5.81038e-21 5.86282 	-0.266567 	-4.87448e-21 5.85542 	-0.265192 	4.22776e-21 5.84805 	-0.263817 	1.33317e-20 5.84145 	-0.261675 	1.46265e-20 5.83366 	-0.258894 	6.57001e-21 5.82595 	-0.256114 	-1.48322e-21 5.81921 	-0.254579 	3.59872e-21 5.81273 	-0.252832 	7.48075e-21 5.8069 	-0.250497 	8.01909e-21 5.80031 	-0.247832 	5.00994e-21 5.79327 	-0.244955 	-2.86351e-22 5.78724 	-0.243285 	-4.20515e-21 5.78172 	-0.241149 	-5.48208e-21 5.77654 	-0.238724 	-5.12733e-21 5.77115 	-0.236196 	-4.16605e-21 5.76478 	-0.233266 	-8.50506e-22 5.75948 	-0.231499 	-2.60472e-21 5.75486 	-0.229061 	-3.15487e-21 5.75034 	-0.226594 	-3.65206e-21 5.74588 	-0.224127 	-4.14979e-21 5.74041 	-0.221278 	-3.71649e-21 5.736 	-0.219281 	-1.49615e-21 5.73206 	-0.216821 	5.00318e-22 5.72818 	-0.214361 	2.49741e-21 5.72437 	-0.211902 	4.49512e-21 5.72001 	-0.209247 	5.8483e-21 5.71645 	-0.207085 	4.16246e-21 5.71314 	-0.204681 	3.38285e-21 5.70988 	-0.202278 	2.60116e-21 5.70669 	-0.199876 	1.81739e-21 5.70338 	-0.197424 	1.29928e-21 5.70219 	-0.19653 	5.67589e-22 5.70105 	-0.195574 	-2.4772e-22 5.69991 	-0.194618 	-1.06303e-21 5.69879 	-0.193662 	-1.87834e-21 5.69762 	-0.192658 	-2.7343e-21 5.69618 	-0.191323 	-4.14672e-21 5.69475 	-0.189988 	-5.55714e-21 5.69334 	-0.188654 	-6.96557e-21 5.69195 	-0.187319 	-8.37199e-21 5.69078 	-0.185918 	-8.46879e-21 5.68878 	-0.183812 	-5.86795e-21 5.68678 	-0.181662 	-3.98401e-21 5.68483 	-0.179512 	-2.10279e-21 5.68293 	-0.177363 	-2.24267e-22 5.68156 	-0.175062 	-4.46257e-22 5.68016 	-0.173215 	1.91504e-21 5.67867 	-0.171267 	2.49801e-21 5.67723 	-0.169321 	3.07893e-21 5.67583 	-0.167376 	3.65781e-21 5.67512 	-0.165229 	1.31693e-22 5.67431 	-0.163661 	-1.20552e-21 5.67328 	-0.161967 	-2.03726e-21 5.67229 	-0.160274 	-2.86714e-21 5.67134 	-0.158582 	-3.69516e-21 5.67115 	-0.15667 	-4.15075e-21 5.67088 	-0.155405 	-7.80293e-21 5.67025 	-0.154014 	-7.67825e-21 5.66965 	-0.152622 	-7.55033e-21 5.66914 	-0.151218 	-7.19784e-21 5.6693 	-0.149633 	-3.98503e-21 5.66944 	-0.148686 	7.05226e-21 5.66922 	-0.147662 	9.49181e-21 5.66895 	-0.146623 	1.02218e-20 5.66885 	-0.145548 	7.44588e-21 5.66918 	-0.144373 	-4.65337e-21 5.66963 	-0.143789 	-5.36536e-21 5.6698 	-0.143171 	-5.34867e-21 5.66978 	-0.142532 	-4.8845e-21 5.66997 	-0.141854 	-4.14726e-21 5.6704 	-0.141131 	-3.09847e-21 5.6711 	-0.140956 	8.45533e-21 5.67158 	-0.140769 	1.53605e-20 5.67175 	-0.140566 	1.56577e-20 5.67212 	-0.14033 	9.97586e-21 5.67259 	-0.140075 	1.15863e-21 5.67347 	-0.140331 	4.18816e-21 5.67422 	-0.140588 	6.14452e-21 5.67452 	-0.140852 	4.0534e-21 5.67497 	-0.141105 	2.14271e-21 5.67544 	-0.141355 	2.65655e-22 5.67644 	-0.142082 	-9.52644e-21 5.67742 	-0.142808 	-1.92655e-20 5.67779 	-0.143582 	-1.85991e-20 5.67821 	-0.144385 	-5.62957e-21 5.67862 	-0.145187 	7.34125e-21 5.67967 	-0.146435 	1.19648e-20 5.6807 	-0.147682 	1.65897e-20 5.68118 	-0.148992 	1.64316e-20 5.68149 	-0.150355 	9.36534e-21 5.68177 	-0.151716 	2.29866e-21 5.6828 	-0.153498 	-2.37255e-21 5.68379 	-0.155278 	-7.04377e-21 5.68431 	-0.157124 	-7.02746e-21 5.68443 	-0.159036 	-2.51455e-21 5.68451 	-0.160946 	1.99771e-21 5.68544 	-0.163254 	1.12247e-20 5.68632 	-0.16556 	2.04503e-20 5.68678 	-0.167938 	2.01005e-20 5.68664 	-0.170389 	1.02748e-20 5.68644 	-0.172838 	4.46359e-22 5.6872 	-0.175667 	-1.35509e-21 5.68789 	-0.178495 	-3.15854e-21 5.68821 	-0.181399 	-5.20627e-21 5.68773 	-0.184378 	-6.84308e-21 5.68718 	-0.187356 	-8.48309e-21 5.68769 	-0.190701 	-8.45981e-21 5.68807 	-0.194054 	-8.03134e-21 5.68806 	-0.197483 	-4.81338e-21 5.68734 	-0.200967 	-1.02984e-21 5.68637 	-0.204465 	2.89758e-21 5.68654 	-0.208319 	1.30274e-20 5.68645 	-0.212207 	1.99712e-20 5.68603 	-0.216147 	2.21672e-20 5.6851 	-0.220119 	1.88523e-20 5.68364 	-0.224125 	9.56089e-21 5.68341 	-0.22848 	-2.68863e-21 5.68273 	-0.232898 	-7.21532e-21 5.68181 	-0.23734 	-8.44497e-21 5.680