# vtk DataFile Version 2.0
track0
ASCII
DATASET POLYDATA
POINTS 10859 float
-0.0205 0.001 1e-05
-0.0202034 0.00100023 1e-05
-0.0199069 0.00100077 1e-05
-0.0196103 0.0010015 1e-05
-0.0193137 0.00100243 1e-05
-0.0190172 0.00100355 1e-05
-0.0187132 0.00100513 1e-05
-0.0184093 0.00100626 1e-05
-0.0181054 0.00100735 1e-05
-0.0178015 0.0010084 1e-05
-0.0174976 0.0010094 1e-05
-0.0172058 0.0010107 1e-05
-0.016914 0.00101142 1e-05
-0.0166222 0.00101211 1e-05
-0.0163305 0.00101277 1e-05
-0.0160387 0.00101339 1e-05
-0.0157586 0.00101435 1e-05
-0.0154784 0.00101492 1e-05
-0.0151983 0.00101552 1e-05
-0.0149182 0.00101617 1e-05
-0.0146381 0.00101686 1e-05
-0.0143692 0.00101784 1e-05
-0.0141002 0.0010186 1e-05
-0.0138313 0.00101941 1e-05
-0.0135624 0.00102027 1e-05
-0.0132934 0.00102119 1e-05
-0.0130353 0.00102231 1e-05
-0.0127771 0.0010233 1e-05
-0.0125189 0.00102433 1e-05
-0.0122607 0.00102539 1e-05
-0.0120025 0.0010265 1e-05
-0.0117547 0.00102771 1e-05
-0.0115068 0.00102884 1e-05
-0.0112589 0.00103001 1e-05
-0.0110111 0.0010312 1e-05
-0.0107632 0.00103242 1e-05
-0.0105252 0.00103365 1e-05
-0.0102873 0.00103486 1e-05
-0.0100493 0.00103609 1e-05
-0.00981133 0.00103734 1e-05
-0.00957337 0.0010386 1e-05
-0.009512 0.00103893 1e-05
-0.00945063 0.00103926 1e-05
-0.00938927 0.00103959 1e-05
-0.0093279 0.00103992 1e-05
-0.00926662 0.00104025 1e-05
-0.00909951 0.00104116 1e-05
-0.00893241 0.00104207 1e-05
-0.0087653 0.00104298 1e-05
-0.00859819 0.0010439 1e-05
-0.00843108 0.00104483 1e-05
-0.00821175 0.00104604 1e-05
-0.00799242 0.00104726 1e-05
-0.00777309 0.00104849 1e-05
-0.00755376 0.00104972 1e-05
-0.00733443 0.00105095 1e-05
-0.00712387 0.00105212 1e-05
-0.0069133 0.00105331 1e-05
-0.00670273 0.00105449 1e-05
-0.00649217 0.00105567 1e-05
-0.0062816 0.00105685 1e-05
-0.00607944 0.00105798 1e-05
-0.00587729 0.0010591 1e-05
-0.00567514 0.00106023 1e-05
-0.00547298 0.00106135 1e-05
-0.00527083 0.00106248 1e-05
-0.00507675 0.00106354 1e-05
-0.00488267 0.0010646 1e-05
-0.0046886 0.00106566 1e-05
-0.00449452 0.00106672 1e-05
-0.00430044 0.00106777 1e-05
-0.00411412 0.00106876 1e-05
-0.0039278 0.00106976 1e-05
-0.00374147 0.00107075 1e-05
-0.00355515 0.00107173 1e-05
-0.00336883 0.0010727 1e-05
-0.00318995 0.00107362 1e-05
-0.00301107 0.00107454 1e-05
-0.00283219 0.00107545 1e-05
-0.00265331 0.00107635 1e-05
-0.00247443 0.00107724 1e-05
-0.0023027 0.00107808 1e-05
-0.00213097 0.00107891 1e-05
-0.00195924 0.00107973 1e-05
-0.0017875 0.00108054 1e-05
-0.00161577 0.00108134 1e-05
-0.0014509 0.00108208 1e-05
-0.00128603 0.00108282 1e-05
-0.00112116 0.00108354 1e-05
-0.000956289 0.00108424 1e-05
-0.000791418 0.00108492 1e-05
-0.000633135 0.00108555 1e-05
-0.000474851 0.00108616 1e-05
-0.000316567 0.00108675 1e-05
-0.000158283 0.0010873 1e-05
-9.04147e-21 0.00108783 1e-05
0.000105677 0.00108817 1e-05
0.000211355 0.00108849 1e-05
0.000317032 0.00108879 1e-05
0.00042271 0.00108908 1e-05
0.000528387 0.00108936 1e-05
0.000634886 0.00108961 1e-05
0.000741385 0.00108986 1e-05
0.000847885 0.0010901 1e-05
0.000954384 0.00109032 1e-05
0.00106088 0.00109053 1e-05
0.00116821 0.00109073 1e-05
0.00127554 0.00109092 1e-05
0.00138286 0.0010911 1e-05
0.00149019 0.00109127 1e-05
0.00159752 0.00109143 1e-05
0.00170568 0.00109157 1e-05
0.00181384 0.0010917 1e-05
0.001922 0.00109183 1e-05
0.00203016 0.00109194 1e-05
0.00213833 0.00109204 1e-05
0.00224733 0.00109212 1e-05
0.00235633 0.00109221 1e-05
0.00246533 0.00109228 1e-05
0.00257434 0.00109234 1e-05
0.00268334 0.0010924 1e-05
0.00279319 0.00109243 1e-05
0.00290304 0.00109247 1e-05
0.00301289 0.0010925 1e-05
0.00312274 0.00109253 1e-05
0.00323259 0.00109254 1e-05
0.00334329 0.00109255 1e-05
0.003454 0.00109255 1e-05
0.0035647 0.00109255 1e-05
0.0036754 0.00109254 1e-05
0.00378611 0.00109253 1e-05
0.00389767 0.0010925 1e-05
0.00400924 0.00109247 1e-05
0.0041208 0.00109244 1e-05
0.00423237 0.0010924 1e-05
0.00434393 0.00109236 1e-05
0.00445636 0.00109231 1e-05
0.00456879 0.00109225 1e-05
0.00468123 0.00109219 1e-05
0.00479366 0.00109213 1e-05
0.00490609 0.00109206 1e-05
0.0050194 0.00109197 1e-05
0.0051327 0.00109189 1e-05
0.00524601 0.0010918 1e-05
0.00535932 0.00109171 1e-05
0.00547262 0.00109161 1e-05
0.00558681 0.0010915 1e-05
0.005701 0.00109139 1e-05
0.00581518 0.00109128 1e-05
0.00592937 0.00109116 1e-05
0.00604356 0.00109103 1e-05
0.00609327 0.00109097 1e-05
0.00614298 0.00109091 1e-05
0.0061927 0.00109085 1e-05
0.00624241 0.00109079 1e-05
0.00629113 0.00109073 1e-05
0.00635669 0.00109065 1e-05
0.00642225 0.00109057 1e-05
0.00648781 0.00109048 1e-05
0.00655337 0.00109039 1e-05
0.00661893 0.0010903 1e-05
0.0067349 0.00109014 1e-05
0.00685087 0.00108997 1e-05
0.00696684 0.0010898 1e-05
0.00708281 0.00108963 1e-05
0.00719878 0.00108944 1e-05
0.00731565 0.00108925 1e-05
0.00743252 0.00108905 1e-05
0.00754939 0.00108885 1e-05
0.00766626 0.00108865 1e-05
0.00778313 0.00108844 1e-05
0.00790091 0.00108821 1e-05
0.00801869 0.00108799 1e-05
0.00813647 0.00108776 1e-05
0.00825425 0.00108752 1e-05
0.00837203 0.00108728 1e-05
0.00849073 0.00108702 1e-05
0.00860942 0.00108676 1e-05
0.00872812 0.0010865 1e-05
0.00884682 0.00108624 1e-05
0.00896551 0.00108597 1e-05
0.00908513 0.00108567 1e-05
0.00920475 0.00108539 1e-05
0.00932437 0.00108509 1e-05
0.00944398 0.0010848 1e-05
0.0095636 0.0010845 1e-05
0.00968415 0.00108416 1e-05
0.0098047 0.00108384 1e-05
0.00992525 0.00108352 1e-05
0.0100458 0.00108319 1e-05
0.0101663 0.00108286 1e-05
0.0102878 0.00108248 1e-05
0.0104093 0.00108213 1e-05
0.0105308 0.00108177 1e-05
0.0106523 0.00108141 1e-05
0.0107738 0.00108104 1e-05
0.0108962 0.00108063 1e-05
0.0110186 0.00108024 1e-05
0.0111411 0.00107985 1e-05
0.0112635 0.00107945 1e-05
0.0113859 0.00107904 1e-05
0.0115093 0.00107859 1e-05
0.0116327 0.00107817 1e-05
0.0117561 0.00107773 1e-05
0.0118795 0.0010773 1e-05
0.0120028 0.00107685 1e-05
0.0121272 0.00107636 1e-05
0.0122515 0.00107589 1e-05
0.0123759 0.00107542 1e-05
0.0125002 0.00107494 1e-05
0.0126245 0.00107445 1e-05
0.0127498 0.00107392 1e-05
0.0128752 0.00107341 1e-05
0.0130005 0.00107289 1e-05
0.0131258 0.00107237 1e-05
0.0132511 0.00107184 1e-05
0.0133774 0.00107126 1e-05
0.0135036 0.0010707 1e-05
0.0136299 0.00107014 1e-05
0.0137562 0.00106957 1e-05
0.0138825 0.00106899 1e-05
0.0140098 0.00106836 1e-05
0.014137 0.00106775 1e-05
0.0142643 0.00106714 1e-05
0.0143915 0.00106652 1e-05
0.0145188 0.00106588 1e-05
0.0146471 0.00106521 1e-05
0.0147753 0.00106455 1e-05
0.0149036 0.00106388 1e-05
0.0150318 0.0010632 1e-05
0.0151601 0.00106251 1e-05
0.0152893 0.00106178 1e-05
0.0154186 0.00106106 1e-05
0.0155478 0.00106033 1e-05
0.0156771 0.0010596 1e-05
0.0158063 0.00105885 1e-05
0.0159366 0.00105806 1e-05
0.0160668 0.00105728 1e-05
0.0161971 0.00105649 1e-05
0.0163274 0.00105569 1e-05
0.0164576 0.00105487 1e-05
0.0165889 0.00105403 1e-05
0.0167201 0.00105318 1e-05
0.0168514 0.00105232 1e-05
0.0169827 0.00105145 1e-05
0.0171139 0.00105057 1e-05
0.0172462 0.00104966 1e-05
0.0173785 0.00104874 1e-05
0.0175108 0.00104781 1e-05
0.0176431 0.00104687 1e-05
0.0177754 0.00104591 1e-05
0.0179087 0.00104493 1e-05
0.018042 0.00104394 1e-05
0.0181753 0.00104293 1e-05
0.0183087 0.00104191 1e-05
0.018442 0.00104087 1e-05
0.0185763 0.00103982 1e-05
0.0187107 0.00103875 1e-05
0.018845 0.00103766 1e-05
0.0189794 0.00103655 1e-05
0.0191137 0.00103543 1e-05
0.0192491 0.0010343 1e-05
0.0193845 0.00103314 1e-05
0.0195199 0.00103196 1e-05
0.0196553 0.00103076 1e-05
0.0197907 0.00102956 1e-05
0.0199272 0.00102835 1e-05
0.0200636 0.0010271 1e-05
0.0202001 0.00102583 1e-05
0.0203365 0.00102453 1e-05
0.020473 0.00102324 1e-05
0.0206105 0.00102194 1e-05
0.020748 0.0010206 1e-05
0.0208855 0.00101923 1e-05
0.021023 0.00101784 1e-05
0.0211606 0.00101645 1e-05
0.0212991 0.00101506 1e-05
0.0214377 0.00101362 1e-05
0.0215763 0.00101215 1e-05
0.0217149 0.00101065 1e-05
0.0218535 0.00100917 1e-05
0.0219931 0.00100768 1e-05
0.0221328 0.00100614 1e-05
0.0222724 0.00100456 1e-05
0.0224121 0.00100296 1e-05
0.0225517 0.00100137 1e-05
0.0226925 0.000999774 1e-05
0.0228332 0.000998131 1e-05
0.022974 0.00099644 1e-05
0.0231147 0.000994729 1e-05
0.0232555 0.000993029 1e-05
0.0233973 0.000991325 1e-05
0.0235391 0.000989571 1e-05
0.023681 0.000987765 1e-05
0.0238228 0.00098594 1e-05
0.0239647 0.000984125 1e-05
0.0241076 0.000982307 1e-05
0.0242505 0.000980435 1e-05
0.0243935 0.00097851 1e-05
0.0245364 0.000976565 1e-05
0.0246794 0.000974631 1e-05
0.0248234 0.000972692 1e-05
0.0249675 0.000970699 1e-05
0.0251115 0.000968651 1e-05
0.0252556 0.000966585 1e-05
0.0253996 0.000964526 1e-05
0.0255448 0.000962461 1e-05
0.02569 0.00096034 1e-05
0.0258351 0.000958169 1e-05
0.0259803 0.000955978 1e-05
0.0261255 0.000953788 1e-05
0.0262718 0.00095159 1e-05
0.0264181 0.000949334 1e-05
0.0265644 0.000947033 1e-05
0.0267107 0.00094471 1e-05
0.026857 0.000942383 1e-05
0.0270044 0.000940046 1e-05
0.0271519 0.00093765 1e-05
0.0272993 0.000935216 1e-05
0.0274467 0.000932759 1e-05
0.0275942 0.00093029 1e-05
0.0277428 0.000927809 1e-05
0.0278914 0.00092527 1e-05
0.0280399 0.000922697 1e-05
0.0281885 0.0009201 1e-05
0.0283371 0.000917483 1e-05
0.0284869 0.00091485 1e-05
0.0286366 0.000912158 1e-05
0.0287863 0.000909436 1e-05
0.0289361 0.000906689 1e-05
0.0290858 0.000903917 1e-05
0.0292367 0.000901125 1e-05
0.0293876 0.000898276 1e-05
0.0295385 0.000895401 1e-05
0.0296894 0.000892499 1e-05
0.0298403 0.000889571 1e-05
0.0299924 0.000886613 1e-05
0.0301445 0.000883604 1e-05
0.0302966 0.000880568 1e-05
0.0304486 0.000877504 1e-05
0.0306007 0.000874412 1e-05
0.030754 0.000871281 1e-05
0.0309072 0.000868105 1e-05
0.0310605 0.000864901 1e-05
0.0312138 0.000861667 1e-05
0.031367 0.000858403 1e-05
0.0315215 0.000855092 1e-05
0.0316759 0.000851742 1e-05
0.0318304 0.000848361 1e-05
0.0319848 0.000844949 1e-05
0.0321393 0.000841505 1e-05
0.0321799 0.000840592 1e-05
0.0322205 0.000839677 1e-05
0.032261 0.00083876 1e-05
0.0323016 0.00083784 1e-05
0.0323414 0.000836937 1e-05
0.0324566 0.000834313 1e-05
0.0325718 0.000831672 1e-05
[...]
POINT_DATA 10859
 FIELD attributes 2
p 1 10859 float
-6.17019 -6.1749 -6.16649 -6.15798 -6.14939 -6.13403 -6.13631 -6.14702 -6.15773 -6.16845 -6.20356 -6.21323 -6.24695 -6.28067 -6.3144 -6.36253 -6.36698 -6.39432 -6.42167 -6.44903 -6.48937 -6.50082 -6.52719 -6.55358 -6.57998 -6.61595 -6.63518 -6.66207 -6.68896 -6.71587 -6.74755 -6.76773 -6.79151 -6.81529 -6.83908 -6.86467 -6.88325 -6.9033 -6.92335 -6.94341 -6.96374 -6.9683 -6.97308 -6.97786 -6.98265 -6.98743 -7.00046 -7.01349 -7.02652 -7.03955 -7.05217 -7.06907 -7.08571 -7.10235 -7.11898 -7.13488 -7.15122 -7.16708 -7.18293 -7.19879 -7.21372 -7.22963 -7.24493 -7.26024 -7.27555 -7.28988 -7.30554 -7.3206 -7.33565 -7.3507 -7.36481 -7.38049 -7.39564 -7.41079 -7.42595 -7.44022 -7.45621 -7.4718 -7.48739 -7.50298 -7.51772 -7.53433 -7.55081 -7.56729 -7.58377 -7.59936 -7.61648 -7.63363 -7.65078 -7.66794 -7.68376 -7.69882 -7.71335 -7.72788 -7.74242 -7.75499 -7.76306 -7.76947 -7.77588 -7.78229 -7.78728 -7.78953 -7.78981 -7.79009 -7.79037 -7.79 -7.79081 -7.79074 -7.79067 -7.7906 -7.79049 -7.7934 -7.79486 -7.79631 -7.79777 -7.79821 -7.80147 -7.80235 -7.80323 -7.80411 -7.80316 -7.80545 -7.80547 -7.8055 -7.80552 -7.8037 -7.80546 -7.80553 -7.80561 -7.80569 -7.80427 -7.80553 -7.80562 -7.8057 -7.80578 -7.8048 -7.805 -7.80444 -7.80387 -7.80331 -7.80215 -7.80127 -7.8 -7.79873 -7.79745 -7.79596 -7.79465 -7.7932 -7.79175 -7.7903 -7.78881 -7.78832 -7.7878 -7.78728 -7.78676 -7.78625 -7.78556 -7.78488 -7.78419 -7.78351 -7.78278 -7.78183 -7.78084 -7.77985 -7.77886 -7.77777 -7.77679 -7.77573 -7.77466 -7.7736 -7.77245 -7.7712 -7.76996 -7.76872 -7.76748 -7.76633 -7.76482 -7.76363 -7.76244 -7.76124 -7.76056 -7.75893 -7.75811 -7.75729 -7.75647 -7.75676 -7.75503 -7.75472 -7.75442 -7.75411 -7.75564 -7.75366 -7.7538 -7.75394 -7.75408 -7.75683 -7.75439 -7.75483 -7.75528 -7.75572 -7.75964 -7.7566 -7.75727 -7.75795 -7.75862 -7.76372 -7.76007 -7.76102 -7.76196 -7.76291 -7.7693 -7.76512 -7.76648 -7.76784 -7.76919 -7.77705 -7.77261 -7.77451 -7.77642 -7.77832 -7.7876 -7.78326 -7.78568 -7.78818 -7.7912 -7.80119 -7.79779 -7.80015 -7.80321 -7.80743 -7.81759 -7.81528 -7.81755 -7.82104 -7.82622 -7.83617 -7.83486 -7.83706 -7.84086 -7.84675 -7.85632 -7.85595 -7.85816 -7.86224 -7.8687 -7.87788 -7.87848 -7.88084 -7.88522 -7.89211 -7.90089 -7.90246 -7.90512 -7.90978 -7.91696 -7.92529 -7.9278 -7.93087 -7.93578 -7.94304 -7.95088 -7.95423 -7.95778 -7.96288 -7.97001 -7.97733 -7.98138 -7.98544 -7.9907 -7.99747 -8.00424 -8.00885 -8.01347 -8.01879 -8.02504 -8.03129 -8.0363 -8.04131 -8.04663 -8.05239 -8.05814 -8.0634 -8.06867 -8.07392 -8.07921 -8.0845 -8.08986 -8.09522 -8.10037 -8.10523 -8.11009 -8.11542 -8.12076 -8.12573 -8.13019 -8.13465 -8.13983 -8.14503 -8.14975 -8.15381 -8.15786 -8.16278 -8.16768 -8.17204 -8.17575 -8.1794 -8.18393 -8.18834 -8.19229 -8.19573 -8.19899 -8.20305 -8.2069 -8.21039 -8.21352 -8.21637 -8.21987 -8.22309 -8.22606 -8.22883 -8.23124 -8.23412 -8.23665 -8.23906 -8.24138 -8.2433 -8.24551 -8.24735 -8.24916 -8.25097 -8.25235 -8.25378 -8.25494 -8.25611 -8.25728 -8.25814 -8.25875 -8.25919 -8.25964 -8.26009 -8.26036 -8.26013 -8.25982 -8.25951 -8.2592 -8.25882 -8.25775 -8.25665 -8.25555 -8.25445 -8.25334 -8.25285 -8.25235 -8.25184 -8.25134 -8.25085 -8.24949 -8.24814 -8.24679 -8.24544 -8.24401 -8.24144 -8.23879 -8.23615 -8.23351 -8.23072 -8.22739 -8.22388 -8.22039 -8.21689 -8.21314 -8.20896 -8.20452 -8.20008 -8.19564 -8.19089 -8.18588 -8.18048 -8.17506 -8.16956 -8.16383 -8.15789 -8.15165 -8.14522 -8.1386 -8.1318 -8.12487 -8.11779 -8.11034 -8.10258 -8.09475 -8.08681 -8.07888 -8.07039 -8.0615 -8.0526 -8.04354 -8.0345 -8.02505 -8.01521 -8.00538 -7.99524 -7.98511 -7.97475 -7.96411 -7.95346 -7.94241 -7.93135 -7.92007 -7.90856 -7.897 -7.88497 -7.87287 -7.86069 -7.84844 -7.83609 -7.82318 -7.8102 -7.79721 -7.78422 -7.77115 -7.75743 -7.7437 -7.72998 -7.71626 -7.70254 -7.68811 -7.6737 -7.65929 -7.6449 -7.63052 -7.62443 -7.61838 -7.61232 -7.60627 -7.60036 -7.59148 -7.58259 -7.57372 -7.56484 -7.5561 -7.5407 -7.5255 -7.51031 -7.49513 -7.48048 -7.46459 -7.4493 -7.43402 -7.41882 -7.40446 -7.38836 -7.37283 -7.35755 -7.34277 -7.3285 -7.31246 -7.29659 -7.28144 -7.26735 -7.25334 -7.23752 -7.22172 -7.207 -7.19337 -7.17975 -7.16429 -7.14883 -7.13453 -7.12132 -7.1081 -7.09297 -7.07826 -7.06461 -7.05157 -7.03901 -7.02442 -7.01117 -6.99842 -6.98568 -6.97432 -6.96118 -6.94971 -6.93824 -6.92677 -6.91599 -6.90764 -6.90005 -6.89246 -6.88486 -6.87732 -6.87483 -6.87234 -6.86985 -6.86736 -6.86511 -6.85613 -6.84739 -6.83865 -6.82991 -6.82245 -6.81417 -6.80715 -6.80013 -6.79311 -6.78843 -6.78115 -6.77576 -6.77058 -6.76626 -6.76365 -6.75828 -6.75378 -6.75055 -6.74919 -6.7485 -6.74512 -6.74173 -6.74069 -6.74194 -6.74317 -6.74182 -6.74046 -6.74138 -6.74458 -6.74776 -6.74848 -6.74918 -6.75198 -6.75711 -6.76222 -6.76498 -6.76829 -6.77316 -6.77931 -6.78629 -6.79106 -6.79703 -6.80372 -6.81082 -6.81958 -6.82629 -6.83464 -6.84306 -6.85146 -6.86151 -6.87046 -6.88048 -6.89048 -6.90047 -6.91134 -6.92226 -6.9337 -6.94512 -6.95653 -6.96816 -6.97332 -6.97859 -6.98386 -6.98913 -6.99465 -7.00192 -7.00919 -7.01645 -7.02371 -7.03102 -7.04443 -7.05802 -7.0716 -7.08517 -7.0988 -7.11275 -7.12715 -7.14155 -7.15593 -7.17025 -7.18461 -7.19955 -7.21449 -7.22942 -7.24405 -7.25861 -7.2738 -7.28898 -7.3041 -7.31868 -7.33334 -7.34836 -7.36344 -7.3783 -7.39253 -7.40694 -7.4215 -7.43615 -7.4503 -7.46388 -7.47774 -7.4916 -7.50544 -7.51843 -7.53096 -7.54388 -7.55675 -7.56942 -7.58082 -7.59198 -7.60362 -7.61525 -7.62638 -7.63585 -7.64533 -7.65535 -7.66538 -7.6745 -7.68206 -7.68962 -7.69779 -7.70597 -7.71281 -7.71813 -7.72346 -7.72945 -7.73546 -7.73972 -7.74255 -7.74539 -7.74894 -7.7525 -7.75388 -7.75388 -7.75389 -7.75465 -7.7551 -7.75333 -7.75049 -7.74739 -7.74508 -7.74167 -7.73664 -7.73087 -7.7243 -7.71855 -7.71079 -7.70218 -7.69336 -7.68305 -7.67348 -7.66096 -7.64845 -7.63593 -7.62205 -7.60727 -7.59054 -7.57381 -7.55707 -7.53981 -7.52948 -7.51843 -7.50737 -7.49632 -7.48648 -7.47626 -7.46603 -7.4558 -7.44558 -7.43461 -7.40967 -7.38411 -7.35856 -7.33301 -7.30502 -7.27656 -7.24602 -7.21548 -7.18434 -7.14996 -7.11682 -7.08227 -7.04649 -7.00797 -6.96821 -6.9297 -6.89118 -6.84939 -6.80407 -6.75869 -6.71457 -6.67045 -6.6226 -6.5716 -6.52044 -6.47053 -6.41821 -6.36401 -6.30974 -6.25262 -6.19641 -6.13705 -6.07768 -6.01829 -5.96881 -5.96598 -5.96314 -5.96031 -5.95747 -5.95447 -5.88931 -5.824 -5.75869 -5.69339 -5.62425 -5.5557 -5.48488 -5.41342 -5.33897 -5.26279 -5.18797 -5.11315 -5.03463 -4.95238 -4.86993 -4.7888 -4.70554 -4.61988 -4.5342 -4.44575 -4.39805 -4.3479 -4.29775 -4.24759 -4.20147 -4.15957 -4.11768 -4.07578 -4.03386 -3.98978 -3.89545 -3.79899 -3.70254 -3.60376 -3.50247 -3.40263 -3.30279 -3.19954 -3.09281 -2.98567 -2.87996 -2.77102 -2.6611 -2.55119 -2.44064 -2.4374 -2.43406 -2.4307 -2.42734 -2.42399 -2.31354 -2.20311 -2.09271 -1.9815 -1.86669 -1.74994 -1.6332 -1.51358 -1.39108 -1.26799 -1.15306 -1.03598 -0.917888 -0.799809 -0.695054 -0.685481 -0.675909 -0.666337 -0.656674 -0.646834 -0.519496 -0.39183 -0.264205 -0.135216 -0.00390378 0.125971 0.255809 0.387838 0.520869 0.655297 0.713603 0.772352 0.831512 0.890665 0.947006 1.02302 1.09902 1.17501 1.25144 1.32868 1.46428 1.59983 1.7364 1.87378 2.01211 2.1075 2.20304 2.29878 2.39449 2.4837 2.5272 2.57069 2.61418 2.65776 2.70153 2.83961 2.97782 3.11608 3.25433 3.39362 3.49868 3.60357 3.70816 3.81272 3.91038 3.94503 3.97968 4.01433 4.04893 4.08357 4.22069 4.35771 4.49466 4.63076 4.76784 4.88877 5.00919 5.12882 5.2484 5.36052 5.37713 5.39373 5.41034 5.42682 5.44327 5.57716 5.71073 5.84425 5.97592 6.10832 6.21618 6.32341 6.42909 6.53473 6.63538 6.66007 6.68474 6.70942 6.73374 6.75798 6.88616 7.01373 7.14089 7.26529 7.39042 7.46704 7.54322 7.61766 7.69209 7.76477 7.8127 7.86063 7.90855 7.95539 8.00206 8.12206 8.24202 8.35966 8.47506 8.59085 8.62898 8.66691 8.70368 8.74046 8.77705 8.85364 8.93024 9.00683 9.08109 9.15501 9.26514 9.37478 9.48064 9.58652 9.69231 9.69311 9.69389 9.69465 9.69541 9.69617 9.79916 9.90217 10.0052 10.1045 10.2029 10.2703 10.3373 10.4016 10.4661 10.5319 10.563 10.5942 10.6253 10.6553 10.685 10.7784 10.8719 10.9628 11.0512 11.1389 11.1741 11.2089 11.2423 11.2758 11.3101 11.362 11.4138 11.4657 11.5156 11.5648 11.647 11.7291 11.808 11.886 11.9627 11.9795 11.9961 12.0121 12.0281 12.0444 12.1034 12.1624 12.2213 12.2783 12.334 12.4052 12.4764 12.5443 12.6121 12.6784 12.6924 12.7061 12.7194 12.7327 12.7464 12.7976 12.8488 12.8999 12.9497 12.9981 13.0591 13.12 13.1788 13.2362 13.2929 13.3206 13.3476 13.374 13.4004 13.429 13.4565 13.484 13.5114 13.5384 13.5645 13.6161 13.6673 13.7178 13.7663 13.8143 13.8615 13.9079 13.953 13.9981 14.0423 14.0551 14.0674 14.0797 14.0919 14.1048 14.1345 14.1641 14.1936 14.223 14.2512 14.2904 14.3293 14.3678 14.4049 14.4416 14.4772 14.5128 14.5469 14.5807 14.6141 14.6464 14.6774 14.7083 14.7392 14.7702 14.7714 14.7726 14.7738 14.775 14.7763 14.8037 14.8312 14.8586 14.886 14.9124 14.9386 14.9646 14.9905 15.0157 15.0406 15.0642 15.0878 15.1109 15.1334 15.1559 15.1771 15.1982 15.2187 15.2391 15.2593 15.2784 15.297 15.3154 15.3338 15.3521 15.366 15.3795 15.3931 15.4066 15.4225 15.425 15.4276 15.4302 15.4327 15.4353 15.4503 15.4654 15.4805 15.4955 15.5104 15.5238 15.5373 15.5508 15.5642 15.5775 15.5894 15.6015 15.6136 15.6256 15.6375 15.6482 15.6589 15.6698 15.6806 15.6913 15.7009 15.7105 15.7202 15.7299 15.7396 15.7483 15.7569 15.7656 15.7744 15.7832 15.7911 15.7989 15.8068 15.8148 15.8229 15.8301 15.8374 15.8447 15.852 15.8596 15.8663 15.8732 15.8801 15.887 15.8941 15.9007 15.9074 15.9142 15.921 15.9279 15.9346 15.9416 15.9485 15.9554 15.9625 15.9697 15.9773 15.9849 15.9924 16 16.0083 16.0167 16.0251 16.0335 16.0419 16.0468 16.0519 16.057 16.0621 16.0718 16.076 16.0801 16.0842 16.0884 16.0926 16.102 16.1113 16.1206 16.1298 16.1389 16.1407 16.1424 16.1442 16.1459 16.1467 16.1559 16.165 16.1739 16.1828 16.1919 16.1928 16.1909 16.189 16.1871 16.185 16.1826 16.18 16.1773 16.1743 16.1591 16.1248 16.0902 16.0554 16.0205 15.9797 15.9363 15.8982 15.8611 15.8259 15.7933 15.7587 15.7243 15.6899 15.6557 15.6214 15.5849 15.5483 15.5093 15.4681 15.4269 15.383 15.339 15.2939 15.2476 15.2013 15.1522 15.1031 15.0531 15.0025 14.9519 14.8984 14.8449 14.7901 14.7345 14.6786 14.6199 14.5604 14.4999 14.4386 14.3765 14.3113 14.2449 14.1778 14.1103 14.0414 13.9692 13.8951 13.8207 13.7463 13.6698 13.5895 13.507 13.4246 13.3421 13.2579 13.1683 13.0767 12.9852 12.8936 12.8006 12.7003 12.5985 12.4967 12.3949 12.2923 12.1798 12.0665 11.9531 11.8397 11.7262 11.7015 11.6766 11.6517 11.6269 11.6006 11.4995 11.3985 11.2974 11.1963 11.0944 10.9542 10.8131 10.6719 10.5308 10.3877 10.232 10.0742 9.91642 9.7586 9.59776 9.42442 9.24654 9.06864 8.89072 8.70715 8.51263 8.31419 8.11575 7.91729 7.7143 7.50031 7.27102 7.0417 6.81235 6.56605 6.31023 6.06176 5.8133 5.56499 5.3241 5.07515 4.76258 4.44423 4.11527 3.72682 3.32482 3.01639 2.7308 2.46857 2.29497 2.11538 1.75239 1.31294 0.737924 0