/*--------------------------------*- C++ -*----------------------------------*\
| =========                 |                                                 |
| \\      /  F ield         | OpenFOAM: The Open Source CFD Toolbox           |
|  \\    /   O peration     | Version:  4.1                                   |
|   \\  /    A nd           | Web:      www.OpenFOAM.org                      |
|    \\/     M anipulation  |                                                 |
\*---------------------------------------------------------------------------*/
FoamFile
{
    version     2.0;
    format      ascii;
    class       volScalarField;
    location    "100";
    object      epsilon;
}
// * * * * * * * * * * * * * * * * * * * * * * * * * * * * * * * * * * * * * //

dimensions      [0 2 -3 0 0 0 0];

internalField   nonuniform List<scalar> 
12225
(
1130.05
2611.31
3861.04
4651.25
5051.86
5193.04
5174.59
5118.83
5006.38
4884.4
4766.85
4656.46
4559.1
4469.59
4395.8
4324.45
4275.41
4211.68
82.7595
272.892
458.178
608.649
717.568
788.135
828.358
852.34
867.614
876.574
885.507
892.153
901.19
908.936
918.555
927.658
935.703
947.068
20.0907
50.8897
83.5882
112.839
137.279
156.43
170.099
179.581
185.799
189.92
192.423
194.305
195.398
196.725
197.453
198.997
199.261
202.743
14.5274
21.3626
28.985
37.1554
44.577
51.1511
56.5271
60.9883
64.3657
67.1384
69.0501
70.6914
71.6573
72.6093
73.0155
73.5678
73.5575
74.3702
14.3166
16.0495
17.8362
20.5315
23.1909
25.7633
28.0338
30.1029
31.8069
33.3515
34.5383
35.6503
36.4241
37.2128
37.6741
38.2369
38.4441
38.8962
14.6422
14.8437
15.175
15.9416
16.8543
17.859
18.8167
19.7602
20.5839
21.3807
22.0299
22.6745
23.1542
23.6697
23.9971
24.4168
24.6004
24.9866
14.74
14.587
14.5747
14.6706
14.8294
15.1331
15.4596
15.8253
16.1681
16.528
16.835
17.1596
17.4109
17.6948
17.8833
18.1338
18.254
18.4903
14.7639
14.5804
14.4527
14.3687
14.3435
14.3685
14.429
14.5391
14.6587
14.8009
14.9281
15.0764
15.1935
15.3357
15.4316
15.5646
15.6325
15.7637
14.7674
14.5895
14.4323
14.2949
14.1854
14.1068
14.0534
14.0266
14.0271
14.0367
14.056
14.0929
14.1217
14.1691
14.1987
14.2482
14.2758
14.3279
14.7666
14.5938
14.4319
14.2813
14.1437
14.0221
13.9159
13.8255
13.7502
13.6907
13.6381
13.6013
13.5658
13.5447
13.5199
13.509
13.4892
13.4907
14.766
14.5944
14.4325
14.2803
14.1367
14.0033
13.8789
13.7652
13.6597
13.5657
13.478
13.4014
13.3289
13.2672
13.2064
13.1573
13.1045
13.0669
14.7658
14.5942
14.4323
14.2799
14.1357
14.0001
13.8718
13.7517
13.6379
13.5321
13.4319
13.3393
13.2513
13.1707
13.0933
13.0234
12.955
12.8944
14.7657
14.594
14.432
14.2794
14.1351
13.999
13.8702
13.7487
13.6335
13.5248
13.4216
13.3244
13.232
13.1451
13.0623
12.9845
12.9102
12.8406
14.7657
14.5939
14.4318
14.2789
14.1346
13.9983
13.8693
13.7474
13.6319
13.5226
13.4189
13.3207
13.2274
13.1389
13.0548
12.975
12.899
12.827
14.7657
14.5938
14.4316
14.2786
14.1342
13.9977
13.8686
13.7465
13.6309
13.5213
13.4174
13.3189
13.2253
13.1365
13.0521
12.9718
12.8954
12.8228
14.7657
14.5937
14.4315
14.2784
14.1338
13.9972
13.8681
13.7458
13.63
13.5203
13.4163
13.3176
13.2239
13.1349
13.0503
12.9699
12.8934
12.8206
14.7657
14.5937
14.4314
14.2783
14.1336
13.9969
13.8677
13.7453
13.6294
13.5196
13.4155
13.3167
13.2229
13.1338
13.0491
12.9685
12.8919
12.819
14.7657
14.5936
14.4314
14.2782
14.1336
13.9968
13.8675
13.7451
13.6292
13.5193
13.4151
13.3162
13.2223
13.1331
13.0484
12.9678
12.8911
12.8181
14.7657
14.5937
14.4314
14.2783
14.1336
13.9968
13.8675
13.7451
13.6291
13.5192
13.415
13.3161
13.2222
13.133
13.0482
12.9676
12.8909
12.818
14.7657
14.5937
14.4315
14.2783
14.1337
13.997
13.8677
13.7452
13.6293
13.5194
13.4153
13.3164
13.2226
13.1334
13.0487
12.9682
12.8916
12.8188
14.7657
14.5937
14.4316
14.2784
14.1339
13.9972
13.868
13.7456
13.6299
13.5202
13.4163
13.3178
13.2245
13.1359
13.052
12.9722
12.8967
12.8248
14.7658
14.5937
14.4317
14.2786
14.1342
13.9977
13.8692
13.7477
13.6335
13.5257
13.4245
13.329
13.2396
13.155
13.0761
13.0012
12.9317
12.8651
14.766
14.5935
14.4319
14.2789
14.1364
14.0033
13.8809
13.7677
13.6649
13.5704
13.4853
13.4073
13.3374
13.2729
13.216
13.1619
13.1157
13.0695
14.7663
14.5917
14.4339
14.2884
14.1664
14.0628
13.9809
13.9155
13.8698
13.8354
13.8156
13.8023
13.7993
13.8008
13.8061
13.8128
13.8275
13.8332
14.7628
14.5925
14.48
14.4129
14.4222
14.4697
14.5554
14.6736
14.8192
14.9648
15.1262
15.2759
15.4359
15.576
15.7268
15.8496
15.989
16.0904
14.7522
14.7226
14.9518
15.2676
15.8066
16.3916
17.0254
17.6312
18.2508
18.8086
19.3702
19.8538
20.3441
20.747
21.1673
21.4915
21.8507
22.1012
15.1007
15.7872
17.6508
19.7834
22.0012
24.1097
26.1705
28.0169
29.8073
31.3342
32.8318
34.0379
35.2581
36.1721
37.1522
37.8173
38.6028
39.0648
17.2948
24.258
33.6646
42.16
50.1616
57.565
64.5189
70.6302
76.2828
80.9404
85.295
88.5848
91.8323
93.9895
96.3989
97.6953
99.5358
100.228
41.9833
92.2741
140.386
183.87
226.228
266.377
302.529
333.676
360.093
381.626
399.561
413.399
425.376
433.784
442.083
447.011
453.661
456.18
569.976
929.78
1287.41
1576.94
1844.31
2077.91
2271.39
2424.27
2538.39
2619.46
2671.77
2702.45
2714.43
2712.09
2702.76
2686.65
2664.49
2639.02
1.44049
2.10132
3.89263
5.68041
7.30212
8.71602
9.91903
10.91
11.8171
12.6606
13.4508
14.24
15.1126
16.1418
17.4231
19.0522
21.1121
23.5727
26.4359
29.706
33.4389
37.6818
42.5522
48.0477
54.2346
61.1302
68.7888
77.2106
86.4119
96.3503
107.026
118.362
130.346
142.883
155.955
169.459
183.381
197.617
212.168
226.935
241.933
257.067
272.369
287.746
303.24
318.764
334.373
349.979
365.646
381.291
396.988
412.652
428.352
444.004
459.68
475.294
490.914
506.456
521.988
537.425
552.835
568.133
583.388
598.511
613.571
628.479
643.305
657.959
672.508
686.86
701.082
715.085
728.938
742.563
756.023
769.244
782.28
795.072
807.681
820.109
832.486
844.897
857.264
868.855
880.72
892.284
903.546
914.785
925.651
936.436
946.976
957.961
967.53
977.292
996.814
1011.36
1022.32
1035.01
1044.75
1055.11
1064.57
1074.54
1081.07
1080.95
1101.57
1103.08
1124.54
1128.95
1137.26
1143.67
1148.33
1152.05
1150.51
1150.69
1153.87
1157.21
1159.07
1164.23
1160.39
1166.76
1162.38
1159.41
1153.93
1147.1
1138.98
1129.56
1118.77
1106.64
1093.14
1078.3
1062.07
1044.44
1025.43
1005.12
983.561
960.849
936.79
911.492
885.401
858.488
830.925
802.906
774.554
745.866
717.475
689.612
660.92
636.98
619.458
602.896
586.463
570.131
553.975
538.046
522.435
507.022
491.788
476.921
462.742
449.028
435.508
422.381
409.769
397.723
386.194
375.165
364.654
354.648
345.132
336.089
327.499
319.32
311.542
304.017
296.969
289.491
283.429
273.979
268.061
245.959
7.31684
4.64916
4.48354
4.78657
5.28013
5.84775
6.45887
7.11252
7.8307
8.61332
9.47087
10.4274
11.519
12.7853
14.2669
15.9974
18.0002
20.2809
22.8432
25.688
28.8216
32.2479
35.9729
39.9881
44.2888
48.863
53.7013
58.7851
64.1072
69.6224
75.3086
81.1397
87.0997
93.1663
99.3282
105.568
111.878
118.246
124.667
131.131
137.637
144.175
150.749
157.347
163.973
170.62
177.291
183.979
190.69
197.42
204.18
210.953
217.736
224.518
231.304
238.084
244.859
251.619
258.368
265.094
271.799
278.474
285.118
291.721
298.285
304.798
311.261
317.663
324.004
330.274
336.472
342.585
348.616
354.556
360.406
366.158
371.818
377.382
382.859
388.256
393.584
398.833
403.969
408.961
413.901
418.72
423.437
428.078
432.623
437.119
441.565
446.017
450.433
455.1
460.305
464.665
468.531
472.361
475.725
479.021
482.081
484.942
487.287
489.498
493.209
495.173
498.674
500.454
502.8
504.481
505.794
506.845
507.276
507.783
507.78
507.891
508.631
509.175
509.095
510.789
509.35
508.139
506.301
503.921
501.144
497.919
494.238
490.093
485.47
480.365
474.762
468.64
461.993
454.801
447.076
438.833
430.062
420.78
411.085
400.997
390.569
379.858
368.912
357.757
346.506
335.253
323.793
312.933
303.252
294.014
284.944
276.004
267.215
258.599
250.19
241.973
233.837
225.819
218.07
210.572
203.286
196.233
189.446
182.948
176.735
170.801
165.146
159.768
154.66
149.815
145.226
140.878
136.776
132.863
129.252
125.634
122.734
119.019
118.399
118.429
15.2477
7.94418
6.71169
6.54771
6.74208
7.1241
7.62975
8.23758
8.94986
9.77678
10.735
11.8465
13.1365
14.6298
16.3477
18.3041
20.505
22.9481
25.6267
28.5314
31.6535
34.9836
38.513
42.2305
46.1268
50.1924
54.4216
58.7764
63.1946
67.7021
72.3081
77.0079
81.7947
86.6583
91.5917
96.5882
101.651
106.768
111.936
117.15
122.406
127.702
133.034
138.401
143.799
149.227
154.684
160.167
165.675
171.207
176.76
182.332
187.918
193.517
199.126
204.741
210.361
215.982
221.6
227.212
232.815
238.404
243.975
249.523
255.045
260.534
265.985
271.393
276.753
282.057
287.302
292.479
297.585
302.614
307.563
312.426
317.202
321.889
326.485
330.988
335.396
339.701
343.893
347.972
351.946
355.809
359.564
363.218
366.773
370.24
373.625
376.938
380.184
383.387
386.51
389.32
391.918
394.368
396.628
398.76
400.741
402.578
404.273
405.963
407.785
409.271
410.893
412.133
413.344
414.311
415.113
415.754
416.183
416.578
416.686
416.527
416.631
416.528
416.263
416.084
415.094
413.944
412.46
410.631
408.497
406.032
403.223
400.05
396.5
392.557
388.208
383.435
378.233
372.593
366.521
360.023
353.107
345.792
338.115
330.106
321.811
313.265
304.498
295.544
286.453
277.29
268.085
259.124
250.624
242.415
234.381
226.493
218.764
211.21
203.85
196.685
189.691
182.876
176.279
169.825
163.568
157.51
151.665
146.054
140.677
135.534
130.626
125.952
121.506
117.287
113.288
109.502
105.931
102.549
99.4044
96.3847
93.7723
91.1131
89.4027
89.132
24.0045
11.3952
9.23102
8.72043
8.74997
9.05194
9.53383
10.1623
10.9305
11.845
12.9202
14.1745
15.6269
17.2936
19.1854
21.3055
23.6501
26.209
28.9691
31.9153
35.0341
38.3128
41.7405
45.3069
49.0024
52.8154
56.7314
60.7515
64.8913
69.1406
73.4886
77.931
82.4633
87.0704
91.7425
96.4686
101.252
106.096
111
115.96
120.974
126.039
131.152
136.31
141.511
146.752
152.032
157.348
162.698
168.08
173.492
178.932
184.397
189.885
195.393
200.919
206.461
212.015
217.578
223.148
228.719
234.288
239.851
245.402
250.937
256.449
261.934
267.384
272.793
278.153
283.459
288.703
293.877
298.975
303.992
308.921
313.757
318.494
323.129
327.655
332.066
336.355
340.516
344.546
348.444
352.209
355.84
359.34
362.709
365.95
369.065
372.056
374.92
377.65
380.218
382.581
384.762
386.783
388.646
390.37
391.957
393.415
394.761
396.035
397.245
398.315
399.313
400.145
400.859
401.403
401.824
402.179
402.291
402.145
401.915
401.598
401.209
400.657
399.954
399.097
397.89
396.463
394.772
392.803
390.555
388.008
385.145
381.949
378.401
374.486
370.188
365.496
360.401
354.9
348.992
342.686
335.992
328.927
321.513
313.763
305.741
297.476
289
280.356
271.603
262.808
254.034
245.413
237.044
228.893
220.919
213.112
205.482
198.044
190.812
183.792
176.981
170.383
164.011
157.845
151.894
146.129
140.546
135.173
130.009
125.058
120.324
115.806
111.502
107.41
103.529
99.8518
96.3804
93.1032
90.0416
87.1553
84.5637
82.1471
80.2124
79.3422
32.9673
15.0181
11.9243
11.0935
10.986
11.2329
11.7098
12.3663
13.1867
14.1718
15.331
16.6776
18.2251
19.9839
21.9589
24.1489
26.5463
29.1392
31.9131
34.8531
37.946
41.1801
44.5466
48.038
51.6483
55.3724
59.2066
63.15
67.2035
71.3633
75.624
79.9788
84.4226
88.9549
93.5734
98.2763
103.064
107.93
112.871
117.882
122.962
128.107
133.313
138.579
143.902
149.278
154.705
160.182
165.705
171.273
176.883
182.533
188.221
193.944
199.701
205.488
211.304
217.146
223.009
228.891
234.789
240.696
246.609
252.523
258.43
264.326
270.203
276.053
281.869
287.641
293.363
299.024
304.616
310.13
315.558
320.891
326.121
331.241
336.243
341.119
345.86
350.457
354.904
359.196
363.329
367.3
371.107
374.748
378.223
381.531
384.673
387.647
390.45
393.078
395.517
397.761
399.817
401.698
403.412
404.971
406.377
407.639
408.766
409.773
410.66
411.411
412.019
412.491
412.827
412.948
412.854
412.726
412.399
411.93
411.312
410.56
409.665
408.606
407.372
405.946
404.275
402.379
400.239
397.843
395.176
392.224
388.968
385.391
381.474
377.202
372.56
367.537
362.125
356.32
350.122
343.539
336.58
329.264
321.608
313.624
305.384
296.909
288.243
279.438
270.553
261.65
252.793
244.061
235.514
227.155
218.977
210.982
203.182
195.591
188.221
181.082
174.175
167.504
161.074
154.879
148.918
143.177
137.651
132.326
127.189
122.252
117.52
112.992
108.67
104.555
100.647
96.9368
93.4312
90.1257
87.0303
84.1329
81.4894
79.0844
77.0343
75.696
41.5711
18.6525
14.6648
13.5341
13.3067
13.5075
13.9818
14.6616
15.5212
16.5544
17.7653
19.1622
20.7538
22.5467
24.5434
26.7412
29.133
31.708
34.4539
37.3582
40.4097
43.5992
46.9199
50.3664
53.9354
57.6243
61.4318
65.357
69.3991
73.5564
77.8264
82.206
86.6928
91.2849
95.9806
100.778
105.675
110.668
115.754
120.93
126.192
131.537
136.961
142.463
148.038
153.683
159.397
165.176
171.018
176.92
182.88
188.896
194.965
201.086
207.256
213.473
219.734
226.037
232.377
238.752
245.157
251.587
258.038
264.502
270.975
277.447
283.912
290.36
296.782
303.168
309.507
315.789
322.002
328.135
334.177
340.116
345.943
351.646
357.214
362.637
367.904
373.004
377.929
382.67
387.222
391.578
395.734
399.688
403.435
406.976
410.308
413.43
416.341
419.039
421.52
423.785
425.839
427.691
429.35
430.822
432.115
433.233
434.184
434.971
435.597
436.076
436.345
436.391
436.236
435.945
435.506
434.918
434.153
433.219
432.114
430.84
429.39
427.755
425.925
423.888
421.624
419.131
416.397
413.41
410.155
406.618
402.783
398.632
394.15
389.321
384.13
378.569
372.627
366.301
359.592
352.506
345.054
337.25
329.117
320.681
311.987
303.08
294.009
284.828
275.595
266.366
257.2
248.153
239.27
230.568
222.055
213.743
205.645
197.775
190.147
182.768
175.642
168.774
162.164
155.81
149.709
143.853
138.234
132.842
127.666
122.676
117.878
113.274
108.869
104.667
100.672
96.8771
93.2908
89.9096
86.7388
83.7778
81.0565
78.589
76.4344
74.7479
49.5644
22.1476
17.3439
15.9383
15.6026
15.7608
16.2303
16.9254
17.8103
18.8721
20.1094
21.526
23.1273
24.9175
26.8983
29.0676
31.4202
33.9482
36.6424
39.4935
42.4931
45.6343
48.912
52.3227
55.8642
59.5353
63.3354
67.2644
71.3219
75.5074
79.8199
84.2582
88.821
93.507
98.3148
103.243
108.288
113.45
118.723
124.106
129.596
135.189
140.881
146.67
152.552
158.525
164.585
170.73
176.956
183.262
189.645
196.103
202.634
209.235
215.904
222.64
229.439
236.298
243.215
250.185
257.204
264.268
271.369
278.502
285.659
292.832
300.011
307.187
314.348
321.483
328.578
335.621
342.598
349.494
356.296
362.989
369.56
375.994
382.277
388.396
394.336
400.086
405.632
410.965
416.075
420.954
425.595
429.993
434.145
438.046
441.695
445.091
448.233
451.122
453.758
456.143
458.282
460.183
461.854
463.301
464.53
465.549
466.363
466.974
467.351
467.473
467.337
467.037
466.55
465.865
464.99
463.92
462.65
461.178
459.505
457.627
455.543
453.244
450.728
447.985
445.007
441.789
438.323
434.598
430.604
426.327
421.755
416.873
411.667
406.123
400.228
393.972
387.348
380.352
372.984
365.25
357.162
348.736
339.999
330.984
321.736
312.303
302.736
293.089
283.416
273.771
264.205
254.766
245.49
236.4
227.513
218.844
210.408
202.221
194.294
186.634
179.246
172.134
165.297
158.733
152.44
146.409
140.634
135.104
129.809
124.731
119.844
115.135
110.617
106.301
102.192
98.2904
94.5982
91.1157
87.8469
84.7951
81.9782
79.4158
77.1467
75.1938
57.0149
25.4762
19.9035
18.2319
17.7891
17.9026
18.362
19.0643
19.9637
21.0403
22.2876
23.7057
25.2972
27.065
29.0106
31.1335
33.4306
35.8973
38.5277
41.3156
44.2555
47.3426
50.5735
53.9459
57.4588
61.1115
64.9044
68.8378
72.9123
77.1282
81.4857
85.9846
90.6249
95.4058
100.327
105.387
110.584
115.916
121.382
126.978
132.701
138.55
144.52
150.608
156.812
163.128
169.554
176.086
182.722
189.46
196.298
203.233
210.263
217.386
224.601
231.904
239.294
246.768
254.322
261.952
269.654
277.423
285.251
293.133
301.06
309.022
317.009
325.01
333.01
340.998
348.956
356.871
364.725
372.501
380.181
387.749
395.185
402.474
409.596
416.535
423.275
429.797
436.088
442.134
447.922
453.441
458.683
463.639
468.304
472.673
476.744
480.516
483.987
487.16
490.035
492.617
494.909
496.919
498.653
500.12
501.326
502.28
502.991
503.397
503.488
503.296
502.895
502.261
501.391
500.28
498.93
497.341
495.51
493.436
491.12
488.559
485.753
482.699
479.394
475.836
472.022
467.948
463.612
459.006
454.124
448.958
443.497
437.732
431.651
425.243
418.499
411.41
403.97
396.176
388.03
379.538
370.716
361.587
352.178
342.528
332.68
322.682
312.584
302.439
292.297
282.209
272.219
262.371
252.697
243.222
233.965
224.944
216.176
207.674
199.45
191.511
183.86
176.499
169.428
162.645
156.146
149.924
143.971
138.278
132.835
127.626
122.632
117.81
113.171
108.731
104.501
100.482
96.6759
93.0847
89.7108
86.5587
83.6398
80.9712
78.581
76.4168
65.9742
28.9561
22.3889
20.3856
19.8109
19.8668
20.3071
21.0088
21.915
22.9984
24.2477
25.6591
27.2332
28.9716
30.8761
32.9473
35.1844
37.5854
40.1475
42.8674
45.742
48.7686
51.9456
55.2717
58.7469
62.3715
66.1464
70.0726
74.1517
78.3848
82.7732
87.3178
92.0195
96.8785
101.895
107.069
112.4
117.886
123.526
129.318
135.259
141.349
147.583
153.959
160.475
167.127
173.914
180.832
187.879
195.053
202.353
209.775
217.319
224.982
232.764
240.66
248.671
256.792
265.02
273.352
281.783
290.307
298.918
307.608
316.367
325.186
334.052
342.952
351.871
360.794
369.703
378.579
387.404
396.156
404.814
413.357
421.763
430.011
438.079
445.946
453.591
460.993
468.135
474.998
481.567
487.828
493.768
499.379
504.651
509.58
514.16
518.391
522.271
525.801
528.984
531.824
534.324
536.491
538.332
539.854
541.067
541.983
542.559
542.767
542.634
542.227
541.535
540.555
539.284
537.721
535.865
533.717
531.275
528.541
525.513
522.193
518.579
514.675
510.479
505.994
501.22
496.161
490.815
485.184
479.265
473.056
466.551
459.749
452.642
445.223
437.487
429.429
421.046
412.339
403.312
393.978
384.356
374.47
364.354
354.043
343.579
333.008
322.378
311.738
301.136
290.617
280.223
269.99
259.949
250.123
240.533
231.196
222.13
213.349
204.861
196.672
188.784
181.199
173.915
166.929
160.238
153.834
147.71
141.856
136.262
130.914
125.794
120.857
116.099
111.54
107.192
103.059
99.1431
95.4455
91.9686
88.7162
85.6959
82.9202
80.4094
78.0718
74.949
32.2672
24.6763
22.3257
21.609
21.6012
22.0131
22.7086
23.6173
24.7046
25.9539
27.3582
28.9155
30.6264
32.4926
34.5153
36.6955
39.0333
41.5282
44.1794
46.9859
49.9471
53.0628
56.3331
59.759
63.3417
67.083
70.985
75.0499
79.28
83.6776
88.2446
92.9831
97.8945
102.98
108.241
113.676
119.288
125.074
131.034
137.166
143.47
149.943
156.584
163.39
170.359
177.489
184.778
192.224
199.825
207.581
215.488
223.547
231.755
240.111
248.614
257.26
266.049
274.976
284.038
293.23
302.546
311.979
321.52
331.161
340.888
350.689
360.549
370.451
380.377
390.306
400.218
410.09
419.897
429.614
439.216
448.678
457.972
467.073
475.955
484.593
492.963
501.042
508.808
516.242
523.327
530.046
536.388
542.343
547.902
553.06
557.814
562.163
566.107
569.65
572.793
575.541
577.902
579.88
581.484
582.725
583.6
584.055
584.111
583.816
583.172
582.182
580.843
579.155
577.115
574.722
571.976
568.878
565.426
561.622
557.468
552.966
548.119
542.93
537.405
531.551
525.373
518.88
512.078
504.971
497.564
489.861
481.865
473.577
464.998
456.128
446.969
437.525
427.803
417.812
407.568
397.096
386.421
375.577
364.599
353.523
342.393
331.254
320.15
309.125
298.219
287.468
276.904
266.554
256.44
246.578
236.986
227.683
218.681
209.985
201.6
193.525
185.761
178.305
171.154
164.303
157.747
151.477
145.482
139.753
134.275
129.033
123.983
119.115
114.45
109.998
105.765
101.75
97.9572
94.3862
91.0408
87.9255
85.0488
82.4243
79.943
82.856
35.1625
26.6516
23.9799
23.1232
23.0545
23.4402
24.1291
25.0403
26.1325
27.3846
28.7859
30.3323
32.0231
33.8592
35.8423
37.9741
40.2562
42.6899
45.276
48.0156
50.9096
53.9594
57.1665
60.533
64.0613
67.7543
71.615
75.6468
79.8531
84.2373
88.8028
93.5526
98.4894
103.616
108.934
114.446
120.152
126.054
132.151
138.445
144.935
151.62
158.498
165.57
172.833
180.287
187.929
195.76
203.777
211.979
220.367
228.938
237.692
246.627
255.743
265.038
274.509
284.153
293.967
303.946
314.083
324.371
334.8
345.361
356.039
366.821
377.689
388.625
399.607
410.613
421.619
432.597
443.521
454.36
465.086
475.667
486.072
496.272
506.235
515.932
525.333
534.411
543.141
551.5
559.465
567.018
574.144
580.83
587.066
592.845
598.162
603.017
607.408
611.339
614.811
617.83
620.402
622.533
624.23
625.503
626.338
626.709
626.642
626.16
625.267
623.965
622.25
620.122
617.576
614.612
611.226
607.422
603.196
598.552
593.49
588.016
582.133
575.85
569.175
562.119
554.695
546.919
538.801
530.357
521.599
512.542
503.197
493.576
483.691
473.552
463.17
452.558
441.732
430.706
419.498
408.137
396.65
385.073
373.438
361.775
350.12
338.515
327
315.613
304.387
293.354
282.538
271.962
261.643
251.594
241.828
232.369
223.225
214.398
205.888
197.695
189.815
182.246
174.983
168.022
161.358
154.981
148.881
143.047
137.465
132.118
126.966
122.008
117.259
112.726
108.412
104.318
100.446
96.7963
93.371
90.1724
87.2061
84.4796
81.8813
89.3794
37.5392
28.2558
25.3086
24.3288
24.2064
24.5698
25.2543
26.1705
27.2713
28.5313
29.9368
31.4814
33.1627
34.9808
36.9369
39.0331
41.2716
43.6547
46.1847
48.8639
51.6947
54.6799
57.8223
61.1254
64.5928
68.2286
72.0371
76.0231
80.1911
84.5459
89.0923
93.8347
98.777
103.923
109.276
114.841
120.618
126.613
132.825
139.258
145.912
152.788
159.887
167.207
174.75
182.516
190.502
198.71
207.138
215.787
224.656
233.744
243.051
252.577
262.32
272.279
282.451
292.835
303.425
314.217
325.204
336.378
347.729
359.244
370.91
382.711
394.626
406.635
418.715
430.84
442.98
455.107
467.189
479.191
491.08
502.82
514.376
525.711
536.791
547.58
558.045
568.154
577.877
587.185
596.054
604.463
612.391
619.824
626.75
633.161
639.05
644.415
649.256
653.574
657.374
660.658
663.435
665.709
667.489
668.778
669.571
669.857
669.649
668.954
667.784
666.139
664.016
661.411
658.319
654.737
650.662
646.094
641.031
635.476
629.43
622.897
615.886
608.405
600.469
592.092
583.295
574.099
564.525
554.596
544.337
533.773
522.93
511.834
500.508
488.977
477.262
465.388
453.383
441.262
429.047
416.77
404.461
392.151
379.863
367.635
355.499
343.489
331.64
319.979
308.533
297.323
286.368
275.681
265.273
255.15
245.314
235.799
226.611
217.747
209.202
200.973
193.057
185.447
178.139
171.131
164.416
157.985
151.827
145.928
140.277
134.852
129.628
124.612
119.809
115.222
110.855
106.707
102.779
99.0704
95.5832
92.3177
89.2774
86.4651
83.7748
94.3319
39.3422
29.4615
26.2968
25.2182
25.0532
25.4009
26.0857
27.0114
28.1264
29.4016
30.8207
32.3749
34.0602
35.8754
37.821
39.8988
42.111
44.4605
46.9503
49.5836
52.3641
55.2955
58.3821
61.6287
65.0402
68.6222
72.3805
76.3212
80.4504
84.7742
89.2992
94.0314
98.9752
104.136
109.518
115.128
120.97
127.05
133.372
139.939
146.755
153.82
161.139
168.712
176.54
184.625
192.966
201.565
210.42
219.533
228.904
238.533
248.419
258.562
268.962
279.617
290.524
301.681
313.082
324.723
336.596
348.692
360.999
373.505
386.192
399.043
412.037
425.149
438.352
451.619
464.916
478.21
491.465
504.643
517.705
530.61
543.319
555.79
567.983
579.858
591.377
602.504
613.203
623.444
633.196
642.436
651.141
659.293
666.879
673.889
680.315
686.155
691.409
696.077
700.164
703.674
706.615
708.992
710.814
712.086
712.809
712.968
712.568
711.601
710.102
708.062
705.476
702.335
698.636
694.371
689.538
684.132
678.154
671.602
664.481
656.794
648.551
639.763
630.449
620.627
610.326
599.573
588.403
576.847
564.944
552.734
540.258
527.556
514.67
501.64
488.497
475.279
461.982
448.645
435.329
422.078
408.931
395.903
383.099
370.447
357.963
345.678
333.618
321.805
310.254
298.981
287.996
277.306
266.916
256.825
247.026
237.584
228.478
219.695
211.229
203.072
195.219
187.662
180.386
173.404
166.707
160.285
154.124
148.211
142.533
137.071
131.823
126.79
121.971
117.366
112.978
108.805
104.848
101.105
97.5783
94.2664
91.1713
88.2926
85.5353
97.6622
40.5567
30.2639
26.9472
25.8
25.6079
25.9503
26.6431
27.5859
28.7236
30.0244
31.4697
33.0487
34.7556
36.588
38.5452
40.6285
42.8398
45.1819
47.658
50.2721
53.0284
55.9318
58.9876
62.2019
65.5813
69.1329
72.8643
76.7838
80.8976
85.2128
89.737
94.4778
99.4421
104.638
110.071
115.751
121.683
127.876
134.334
141.063
148.069
155.355
162.928
170.79
178.945
187.393
196.135
205.173
214.507
224.138
234.066
244.291
254.814
265.634
276.75
288.159
299.858
311.844
324.112
336.654
349.462
362.525
375.83
389.362
403.102
417.029
431.12
445.347
459.681
474.089
488.536
502.983
517.39
531.715
545.914
559.944
573.758
587.311
600.559
613.457
625.963
638.035
649.636
660.729
671.284
681.272
690.668
699.452
707.611
715.131
722.006
728.232
733.809
738.739
743.026
746.676
749.695
752.093
753.876
755.051
755.624
755.577
754.891
753.577
751.665
749.146
746.009
742.245
737.846
732.804
727.113
720.768
713.769
706.113
697.805
688.848
679.253
669.035
658.215
646.818
634.879
622.437
609.537
596.22
582.541
568.558
554.332
539.912
525.328
510.59
495.824
481.106
466.556
452.19
437.971
423.937
410.128
396.553
383.311
370.264
357.486
345.003
332.827
320.968
309.433
298.224
287.342
276.785
266.55
256.628
246.988
237.71
228.764
220.139
211.824
203.812
196.094
188.66
181.497
174.627
168.03
161.692
155.596
149.729
144.078
138.646
133.432
128.43
123.639
119.056
114.684
110.52
106.564
102.816
99.2748
95.9401
92.8129
89.8897
87.0907
99.1236
41.1183
30.652
27.2706
26.0965
25.9004
26.254
26.9687
27.9421
29.1173
30.4608
31.9521
33.5788
35.3337
37.2129
39.215
41.3401
43.5897
45.9662
48.4729
51.1139
53.8938
56.8183
59.8937
63.1274
66.5275
70.103
73.8606
77.8085
81.9561
86.3133
90.8897
95.6951
100.739
106.032
111.584
117.404
123.501
129.885
136.563
143.542
150.83
158.433
166.356
174.604
183.183
192.095
201.342
210.925
220.845
231.101
241.695
252.625
263.892
275.493
287.427
299.689
312.276
325.18
338.396
351.914
365.722
379.809
394.157
408.75
423.565
438.579
453.766
469.093
484.529
500.038
515.579
531.111
546.59
561.971
577.206
592.246
607.043
621.548
635.712
649.488
662.829
675.692
688.034
699.819
711.011
721.581
731.502
740.754
749.32
757.189
764.351
770.805
776.549
781.588
785.926
789.569
792.525
794.803
796.413
797.363
797.648
797.27
796.156
794.374
791.926
788.799
784.983
780.465
775.234
769.283
762.6
755.182
747.024
738.128
728.494
718.129
707.042
695.253
682.789
669.68
655.965
641.696
626.94
611.739
596.166
580.195
563.969
547.605
531.235
515.014
498.893
482.953
467.331
451.849
436.644
421.771
407.264
393.139
379.423
366.094
353.162
340.629
328.495
316.755
305.4
294.422
283.809
273.549
263.63
254.039
244.763
235.813
227.181
218.855
210.824
203.079
195.611
188.405
181.44
174.747
168.304
162.101
156.117
150.353
144.797
139.468
134.351
129.439
124.727
120.211
115.894
111.776
107.856
104.132
100.605
97.274
94.1396
91.1959
88.3806
99.3229
41.1765
30.695
27.3187
26.1604
25.9907
26.3793
27.1393
28.1686
29.4094
30.8269
32.3997
34.1143
35.9621
37.9384
40.0406
42.2681
44.6216
47.1033
49.7162
52.4644
55.3528
58.3876
61.5763
64.9266
68.4459
72.1428
76.0275
80.1109
84.4046
88.9206
93.6712
98.6687
103.926
109.454
115.267
121.375
127.791
134.525
141.586
148.986
156.73
164.828
173.286
182.11
191.304
200.872
210.813
221.131
231.825
242.895
254.339
266.155
278.341
290.893
303.805
317.071
330.683
344.632
358.906
373.493
388.378
403.544
418.972
434.64
450.523
466.595
482.824
499.177
515.617
532.106
548.6
565.057
581.43
597.669
613.727
629.552
645.094
660.302
675.125
689.513
703.419
716.796
729.603
741.801
753.353
764.229
774.404
783.855
792.565
800.524
807.722
814.157
819.83
824.745
828.908
832.326
835.007
836.961
838.201
838.732
838.553
837.615
835.909
833.48
830.317
826.405
821.731
816.281
810.041
803.001
795.15
786.481
776.99
766.678
755.549
743.608
730.865
717.339
703.077
688.106
672.475
656.197
639.315
621.961
604.212
586.364
568.42
550.437
532.611
514.772
497.124
479.777
462.812
446.248
430.143
414.543
399.476
384.954
370.985
357.554
344.648
332.253
320.351
308.918
297.934
287.372
277.21
267.423
257.99
248.891
240.11
231.64
223.467
215.578
207.961
200.606
193.503
186.635
179.995
173.584
167.387
161.407
155.634
150.065
144.686
139.515
134.541
129.76
125.167
120.756
116.539
112.508
108.661
104.996
101.514
98.2144
95.0996
92.1607
89.3551
98.0835
40.7919
30.4655
27.1635
26.067
25.9641
26.4361
27.2924
28.4306
29.7943
31.349
33.0729
34.9521
36.9775
39.1436
41.4476
43.8882
46.4659
49.1822
52.0399
55.043
58.1962
61.5055
64.9777
68.621
72.4454
76.4614
80.6808
85.1165
89.7819
94.6914
99.8595
105.301
111.031
117.065
123.415
130.097
137.123
144.506
152.257
160.386
168.902
177.813
187.125
196.846
206.976
217.517
228.469
239.832
251.604
263.78
276.357
289.329
302.688
316.426
330.534
344.997
359.804
374.937
390.381
406.116
422.123
438.38
454.863
471.544
488.397
505.39
522.489
539.659
556.863
574.059
591.206
608.257
625.169
641.892
658.379
674.581
690.447
705.928
720.973
735.533
749.561
763.012
775.845
788.02
799.504
810.266
820.283
829.534
838.001
845.674
852.545
858.612
863.875
868.341
872.014
874.905
877.018
878.366
878.97
878.82
877.897
876.147
873.618
870.3
866.182
861.247
855.481
848.864
841.384
833.025
823.777
813.632
802.586
790.639
777.813
764.095
749.502
734.028
717.658
700.498
682.635
664.233
645.41
626.175
606.607
586.964
567.102
547.246
527.543
508.069
488.948
470.292
452.188
434.693
417.858
401.722
386.305
371.61
357.625
344.326
331.68
319.651
308.204
297.298
286.894
276.952
267.436
258.308
249.536
241.095
232.962
225.12
217.552
210.234
203.158
196.313
189.688
183.259
177.03
170.999
165.16
159.509
154.042
148.755
143.642
138.707
133.947
129.358
124.938
120.681
116.597
112.684
108.939
105.362
101.952
98.7142
95.6476
92.7409
89.9716
95.0545
39.735
29.8493
26.7791
25.8726
25.959
26.6204
27.6756
29.035
30.6447
32.4719
34.4955
36.7019
39.0824
41.6317
44.3466
47.2261
50.2703
53.4809
56.8605
60.413
64.1428
68.0562
72.1606
76.4651
80.9803
85.7182
90.6917
95.9148
101.403
107.173
113.24
119.623
126.336
133.395
140.815
148.611
156.795
165.378
174.372
183.785
193.622
203.891
214.591
225.724
237.294
249.3
261.734
274.592
287.864
301.542
315.614
330.07
344.893
360.069
375.578
391.4
407.51
423.887
440.502
457.333
474.351
491.53
508.84
526.253
543.737
561.26
578.787
596.286
613.72
631.054
648.247
665.261
682.053
698.585
714.812
730.694
746.184
761.238
775.809
789.852
803.321
816.177
828.379
839.894
850.688
860.735
870.014
878.506
886.196
893.071
899.125
904.355
908.76