/*--------------------------------*- C++ -*----------------------------------*\
| =========                 |                                                 |
| \\      /  F ield         | OpenFOAM: The Open Source CFD Toolbox           |
|  \\    /   O peration     | Version:  4.1                                   |
|   \\  /    A nd           | Web:      www.OpenFOAM.org                      |
|    \\/     M anipulation  |                                                 |
\*---------------------------------------------------------------------------*/
FoamFile
{
    version     2.0;
    format      ascii;
    class       volScalarField;
    location    "100";
    object      k;
}
// * * * * * * * * * * * * * * * * * * * * * * * * * * * * * * * * * * * * * //

dimensions      [0 2 -2 0 0 0 0];

internalField   nonuniform List<scalar> 
12225
(
0.580279
1.01384
1.31599
1.48988
1.57425
1.60346
1.60041
1.58751
1.56495
1.53932
1.5145
1.49102
1.47017
1.45086
1.43486
1.4193
1.40855
1.39457
0.442182
0.502577
0.527828
0.540353
0.547611
0.551349
0.553456
0.555205
0.558632
0.562063
0.56817
0.573976
0.582565
0.590274
0.600337
0.60922
0.619239
0.629543
0.387486
0.41927
0.426323
0.423527
0.416727
0.406237
0.394626
0.38323
0.372056
0.362181
0.352849
0.345378
0.338215
0.333249
0.32807
0.3253
0.321746
0.320622
0.375842
0.384399
0.388021
0.387391
0.385558
0.381444
0.376099
0.370104
0.363744
0.357298
0.350898
0.344694
0.338719
0.333055
0.327743
0.322744
0.318156
0.313807
0.374005
0.3749
0.37583
0.375402
0.37437
0.372275
0.369566
0.366316
0.362848
0.35907
0.355323
0.351373
0.347656
0.343762
0.340246
0.336526
0.333335
0.329845
0.37372
0.372268
0.371496
0.370518
0.369355
0.367808
0.366008
0.363891
0.361671
0.359224
0.356805
0.354213
0.35175
0.349136
0.346738
0.34418
0.341919
0.339466
0.373786
0.371641
0.369946
0.36841
0.366967
0.365456
0.363912
0.362242
0.360545
0.35874
0.356951
0.355074
0.353264
0.351379
0.349602
0.347752
0.346049
0.344263
0.373822
0.37156
0.369556
0.367732
0.366065
0.364456
0.362907
0.361342
0.359803
0.358229
0.35669
0.355115
0.353591
0.35204
0.350558
0.34905
0.347631
0.346178
0.373831
0.371558
0.36945
0.367489
0.365681
0.363973
0.362366
0.360807
0.359307
0.357826
0.356394
0.35497
0.353594
0.352224
0.350907
0.349595
0.348345
0.347091
0.373831
0.371562
0.369424
0.367408
0.36552
0.363739
0.362067
0.360474
0.358962
0.357504
0.35611
0.354756
0.353457
0.352188
0.350971
0.349779
0.348638
0.347517
0.373829
0.371561
0.369416
0.367384
0.365465
0.363648
0.361933
0.360307
0.358767
0.357298
0.355902
0.354565
0.353289
0.352062
0.350889
0.349758
0.348673
0.347626
0.373828
0.371558
0.36941
0.367373
0.365444
0.363614
0.361881
0.360235
0.358675
0.357191
0.355781
0.354439
0.35316
0.35194
0.350776
0.349663
0.348598
0.34758
0.373827
0.371556
0.369404
0.367365
0.365432
0.363597
0.361856
0.360202
0.358632
0.357139
0.355719
0.354368
0.353082
0.351856
0.350688
0.349575
0.348511
0.347496
0.373826
0.371554
0.3694
0.367358
0.365422
0.363584
0.361839
0.360182
0.358606
0.357108
0.355683
0.354326
0.353034
0.351804
0.35063
0.349512
0.348444
0.347426
0.373826
0.371552
0.369397
0.367353
0.365414
0.363574
0.361826
0.360166
0.358587
0.357086
0.355657
0.354297
0.353001
0.351767
0.35059
0.349467
0.348396
0.347374
0.373825
0.371551
0.369395
0.367349
0.365409
0.363566
0.361817
0.360154
0.358573
0.357069
0.355638
0.354274
0.352976
0.351739
0.350559
0.349434
0.34836
0.347335
0.373825
0.371551
0.369393
0.367347
0.365405
0.363561
0.36181
0.360145
0.358563
0.357057
0.355623
0.354258
0.352958
0.351718
0.350537
0.34941
0.348334
0.347308
0.373825
0.37155
0.369393
0.367346
0.365404
0.363559
0.361807
0.360141
0.358558
0.35705
0.355616
0.354249
0.352948
0.351707
0.350525
0.349396
0.34832
0.347293
0.373825
0.371551
0.369393
0.367347
0.365404
0.36356
0.361807
0.360142
0.358557
0.35705
0.355614
0.354248
0.352946
0.351705
0.350522
0.349394
0.348316
0.34729
0.373825
0.371551
0.369394
0.367348
0.365406
0.363562
0.36181
0.360144
0.358561
0.357053
0.355619
0.354252
0.352951
0.35171
0.350528
0.349399
0.348324
0.347296
0.373826
0.371552
0.369396
0.367351
0.365409
0.363566
0.361815
0.360151
0.358568
0.357063
0.35563
0.354266
0.352966
0.351727
0.350547
0.349421
0.348346
0.347321
0.373826
0.371553
0.369398
0.367354
0.365414
0.363574
0.361827
0.360168
0.358591
0.357093
0.355667
0.35431
0.353016
0.351784
0.350606
0.349484
0.348411
0.347385
0.373826
0.371555
0.3694
0.367362
0.365432
0.363608
0.361881
0.360246
0.358693
0.357217
0.35581
0.354467
0.353182
0.351951
0.350771
0.349638
0.34855
0.347503
0.373827
0.371553
0.369412
0.36742
0.365551
0.363805
0.362154
0.36059
0.359089
0.357647
0.356251
0.3549
0.353586
0.352311
0.351068
0.349862
0.348686
0.347548
0.373823
0.371558
0.36958
0.367833
0.366203
0.36468
0.36318
0.361703
0.360209
0.358721
0.35722
0.355727
0.354234
0.35276
0.35129
0.349854
0.348431
0.347048
0.373799
0.371902
0.370808
0.369763
0.368638
0.367448
0.365995
0.364404
0.362628
0.360786
0.358837
0.356875
0.35486
0.352863
0.350852
0.348888
0.346923
0.345023
0.374231
0.374676
0.376473
0.376453
0.37588
0.37465
0.372432
0.369954
0.367104
0.364195
0.361079
0.358003
0.354816
0.351725
0.348589
0.345559
0.342536
0.339643
0.378894
0.390346
0.398462
0.398204
0.396215
0.39266
0.38795
0.383146
0.377879
0.372747
0.36738
0.362235
0.357064
0.352125
0.34736
0.342774
0.338554
0.334388
0.401212
0.43007
0.440456
0.44422
0.447079
0.450308
0.453193
0.456038
0.458442
0.460733
0.462769
0.464647
0.466618
0.468275
0.47044
0.472064
0.474717
0.476305
0.464846
0.64414
0.800188
0.916063
1.01688
1.10103
1.16835
1.22021
1.2582
1.28485
1.30189
1.31184
1.3157
1.31474
1.31218
1.30661
1.29947
1.29119
0.00966423
0.02039
0.030645
0.0393372
0.0464422
0.0521917
0.0568364
0.0605026
0.0639278
0.0669819
0.0698269
0.0726372
0.0757386
0.0793112
0.0836985
0.0890782
0.0955644
0.102896
0.111087
0.120026
0.12985
0.140535
0.152332
0.165055
0.178811
0.193475
0.209133
0.225623
0.242957
0.260935
0.279561
0.298616
0.318106
0.33782
0.357774
0.377769
0.397845
0.417824
0.43777
0.457523
0.47717
0.496564
0.515809
0.534769
0.553555
0.572039
0.590342
0.608343
0.626162
0.643683
0.661036
0.678109
0.695019
0.711653
0.728131
0.744337
0.760384
0.776156
0.791766
0.807098
0.822264
0.837144
0.851852
0.866265
0.880496
0.894421
0.908153
0.921567
0.934778
0.947659
0.960325
0.972643
0.984729
0.99646
1.00795
1.01908
1.02998
1.04054
1.05088
1.06094
1.07084
1.08052
1.08997
1.09908
1.10815
1.11692
1.12551
1.13395
1.14218
1.1503
1.15832
1.16636
1.17416
1.18277
1.19442
1.20206
1.21017
1.21824
1.22521
1.23228
1.23813
1.24233
1.2409
1.24716
1.25489
1.26855
1.26848
1.2849
1.28565
1.28973
1.29
1.28648
1.28946
1.29248
1.30046
1.29887
1.29768
1.29397
1.29395
1.29479
1.29842
1.29407
1.29085
1.2852
1.27912
1.27196
1.26383
1.25472
1.24456
1.23341
1.22121
1.20793
1.19353
1.17804
1.16145
1.14384
1.12522
1.10533
1.08448
1.0628
1.04028
1.01703
0.993223
0.96884
0.943938
0.919157
0.894349
0.868778
0.848528
0.832491
0.816899
0.80127
0.785618
0.76999
0.754483
0.739111
0.723735
0.708444
0.693439
0.678996
0.664777
0.650651
0.636832
0.623447
0.610515
0.597992
0.585903
0.574261
0.563062
0.552295
0.541956
0.532007
0.522446
0.513119
0.504279
0.494919
0.487099
0.475317
0.46912
0.440373
0.0283401
0.0563643
0.0788971
0.0960677
0.110285
0.12253
0.133288
0.142864
0.151493
0.159681
0.167946
0.176747
0.186494
0.197485
0.209915
0.223821
0.239183
0.255964
0.274151
0.293698
0.314613
0.336897
0.360589
0.385668
0.412146
0.439979
0.469146
0.499565
0.531177
0.563841
0.597438
0.631815
0.666866
0.702444
0.738446
0.774733
0.811217
0.847778
0.884356
0.920854
0.957236
0.993427
1.02941
1.06513
1.10058
1.13572
1.17057
1.20508
1.23928
1.27313
1.30667
1.33988
1.37276
1.40531
1.43753
1.46941
1.50095
1.53213
1.56296
1.5934
1.62346
1.65311
1.68235
1.71114
1.73948
1.76733
1.79469
1.82151
1.8478
1.87351
1.89866
1.92319
1.94712
1.97035
1.9929
2.01473
2.03587
2.05629
2.07602
2.09506
2.11345
2.13123
2.14842
2.16497
2.18094
2.19638
2.21133
2.22582
2.2399
2.25365
2.26711
2.28033
2.29338
2.30646
2.31924
2.33169
2.34404
2.35608
2.36777
2.37917
2.39019
2.40088
2.41133
2.42252
2.43312
2.44387
2.45257
2.46233
2.46982
2.47746
2.48435
2.49082
2.49791
2.50433
2.5104
2.51427
2.51423
2.5161
2.52191
2.52173
2.52423
2.52493
2.52638
2.52338
2.5193
2.51369
2.5065
2.49762
2.48695
2.47443
2.46001
2.44357
2.42486
2.40386
2.38052
2.35486
2.32691
2.29669
2.26426
2.22976
2.19335
2.15517
2.11542
2.07426
2.03182
1.98831
1.94435
1.89971
1.85467
1.80971
1.76466
1.71968
1.675
1.63083
1.58732
1.54456
1.50197
1.46005
1.41916
1.37951
1.34099
1.30338
1.26691
1.23175
1.19788
1.16519
1.13373
1.10354
1.07457
1.0468
1.02021
0.994733
0.97033
0.946904
0.924473
0.902611
0.882311
0.860436
0.84501
0.803006
0.0459964
0.0892102
0.118728
0.140716
0.159088
0.175289
0.190057
0.203888
0.217217
0.230482
0.244127
0.258577
0.274217
0.291347
0.310172
0.330789
0.353219
0.377427
0.403356
0.43094
0.46013
0.490885
0.523184
0.556994
0.59229
0.629023
0.667143
0.706568
0.747193
0.78887
0.831479
0.874887
0.918976
0.963615
1.00869
1.05407
1.09966
1.14535
1.19107
1.23673
1.28227
1.32765
1.37283
1.41777
1.46244
1.50681
1.55089
1.59465
1.63809
1.6812
1.72398
1.76642
1.80851
1.85026
1.89166
1.93269
1.97336
2.01364
2.05353
2.09301
2.13206
2.17066
2.2088
2.24644
2.28355
2.32012
2.3561
2.39146
2.42618
2.46022
2.49354
2.5261
2.55788
2.58884
2.61894
2.64817
2.67649
2.70391
2.73042
2.75601
2.7807
2.80449
2.82738
2.84934
2.87043
2.89065
2.91005
2.92866
2.94651
2.96366
2.98016
2.99604
3.01135
3.02614
3.04025
3.05386
3.06681
3.07915
3.09089
3.10208
3.11279
3.12307
3.13297
3.14257
3.15163
3.16036
3.16826
3.17606
3.18307
3.1896
3.19558
3.20126
3.20686
3.21173
3.2158
3.2189
3.22018
3.22066
3.2213
3.22056
3.2196
3.21733
3.21393
3.20834
3.20113
3.19212
3.18118
3.16817
3.15294
3.13536
3.11531
3.09266
3.06728
3.03909
3.00806
2.97417
2.93746
2.898
2.85588
2.81124
2.76424
2.71505
2.66385
2.61085
2.55623
2.50025
2.44352
2.38647
2.32927
2.27205
2.21485
2.15785
2.10131
2.04545
1.99044
1.93641
1.8833
1.83131
1.78062
1.73136
1.68347
1.63643
1.59077
1.5467
1.50419
1.46302
1.42336
1.38524
1.3486
1.31343
1.27972
1.2474
1.21644
1.18674
1.15832
1.13096
1.10523
1.0794
1.05999
1.02605
0.0620011
0.121935
0.157938
0.184272
0.206211
0.225676
0.243634
0.26072
0.277449
0.294289
0.311688
0.330069
0.349805
0.371194
0.394446
0.419667
0.446889
0.476075
0.507163
0.540076
0.574749
0.611123
0.649154
0.688798
0.73001
0.772727
0.816876
0.862349
0.909034
0.956818
1.00559
1.05523
1.10561
1.15661
1.20811
1.25999
1.31215
1.36448
1.41692
1.46937
1.52179
1.57412
1.62632
1.67833
1.73015
1.78173
1.83305
1.88411
1.93488
1.98535
2.03553
2.08538
2.13492
2.18413
2.233
2.28153
2.32969
2.37748
2.42489
2.47188
2.51845
2.56456
2.61019
2.65531
2.69988
2.74387
2.78724
2.82994
2.87193
2.91316
2.95359
2.99317
3.03186
3.0696
3.10634
3.14206
3.17672
3.21028
3.24273
3.27404
3.30421
3.3332
3.36102
3.38765
3.4131
3.43739
3.46053
3.48256
3.50349
3.52338
3.54225
3.56013
3.57707
3.59308
3.60813
3.62228
3.63548
3.64781
3.65929
3.66999
3.67996
3.68925
3.69789
3.7059
3.71327
3.72003
3.72607
3.73161
3.73654
3.74075
3.74418
3.74706
3.74977
3.75164
3.75212
3.75126
3.74966
3.74731
3.74435
3.7402
3.73508
3.72863
3.72072
3.71101
3.6995
3.68606
3.67054
3.65275
3.63254
3.60976
3.58426
3.5559
3.52456
3.49015
3.45262
3.41197
3.36822
3.32143
3.27172
3.21923
3.16411
3.10653
3.04671
2.98491
2.92148
2.85679
2.79134
2.72555
2.65965
2.59379
2.5281
2.46278
2.39808
2.33421
2.27137
2.20969
2.14926
2.09021
2.03266
1.9767
1.92236
1.86949
1.81824
1.76873
1.7209
1.67436
1.62946
1.58628
1.54468
1.50469
1.46632
1.42948
1.39418
1.36033
1.32796
1.29696
1.26772
1.23943
1.21631
1.18549
0.0763997
0.15322
0.196104
0.227001
0.25257
0.27521
0.296125
0.316079
0.335664
0.355387
0.375714
0.397068
0.419822
0.444276
0.470647
0.499061
0.529569
0.562155
0.596771
0.633347
0.671817
0.712114
0.754183
0.797966
0.843403
0.890422
0.938943
0.988866
1.04009
1.09252
1.14602
1.20048
1.25578
1.3118
1.36842
1.42553
1.48303
1.54083
1.59885
1.65703
1.71528
1.77356
1.8318
1.88998
1.94804
2.00596
2.06371
2.12126
2.1786
2.2357
2.29257
2.34917
2.4055
2.46156
2.51732
2.57277
2.62791
2.68272
2.73717
2.79124
2.84491
2.89815
2.95093
3.00321
3.05495
3.1061
3.15661
3.20644
3.25552
3.3038
3.35121
3.39769
3.44319
3.48763
3.53095
3.57311
3.61403
3.65368
3.69202
3.72899
3.76457
3.79872
3.83141
3.86262
3.89236
3.92061
3.94738
3.97269
3.99656
4.01902
4.04008
4.05979
4.07817
4.09524
4.11101
4.12553
4.13881
4.15091
4.16187
4.17177
4.18064
4.18854
4.1955
4.20156
4.20677
4.21107
4.21445
4.21705
4.21909
4.22011
4.21988
4.21865
4.21705
4.21451
4.21079
4.20605
4.20029
4.1936
4.18592
4.17705
4.16695
4.15547
4.14243
4.12768
4.11108
4.09251
4.07178
4.04874
4.02321
3.99503
3.96403
3.93008
3.89304
3.85282
3.80936
3.76263
3.71266
3.6595
3.60326
3.54406
3.48206
3.41749
3.35062
3.28181
3.21142
3.13985
3.06755
2.99491
2.92218
2.84957
2.77725
2.70545
2.6344
2.56433
2.49542
2.42784
2.36171
2.29714
2.23424
2.17309
2.11373
2.05611
2.00029
1.94634
1.89424
1.84387
1.7953
1.74858
1.7034
1.65989
1.6181
1.57792
1.53937
1.5024
1.46705
1.43332
1.40144
1.37118
1.34521
1.31336
0.0890121
0.182554
0.232514
0.268105
0.297368
0.323172
0.346938
0.369552
0.391675
0.413851
0.436565
0.460248
0.485276
0.51196
0.540534
0.571152
0.603895
0.638781
0.675791
0.714873
0.755971
0.79902
0.843958
0.890719
0.939237
0.989433
1.04123
1.09452
1.14922
1.20522
1.26241
1.32067
1.3799
1.43997
1.50079
1.56226
1.62426
1.68673
1.74957
1.81271
1.87607
1.9396
2.00324
2.06694
2.13065
2.19433
2.25796
2.32149
2.3849
2.44818
2.5113
2.57425
2.63701
2.69957
2.76192
2.82403
2.88589
2.94749
3.0088
3.06979
3.13045
3.19072
3.25059
3.30999
3.36889
3.42722
3.48494
3.54197
3.59824
3.65369
3.70824
3.7618
3.81429
3.86564
3.91576
3.96457
4.012
4.05798
4.10244
4.14531
4.18654
4.22607
4.26386
4.29987
4.33408
4.36647
4.39704
4.42577
4.45269
4.47781
4.50115
4.52273
4.5426
4.56076
4.57727
4.59214
4.60544
4.61721
4.62752
4.63641
4.64394
4.65017
4.65512
4.65885
4.66154
4.66295
4.66302
4.66184
4.65986
4.65666
4.65224
4.64678
4.64035
4.63282
4.62412
4.61426
4.60326
4.59113
4.57781
4.56323
4.5473
4.52992
4.51098
4.49034
4.46787
4.44344
4.41689
4.38805
4.35675
4.32283
4.28612
4.24648
4.20376
4.15785
4.10869
4.05624
4.0005
3.94152
3.87938
3.81423
3.74627
3.67577
3.60305
3.52847
3.4524
3.37525
3.29742
3.21926
3.14106
3.06305
2.98544
2.90846
2.83235
2.75733
2.6836
2.61132
2.54062
2.47162
2.40443
2.33911
2.27571
2.21422
2.15468
2.09711
2.04151
1.98782
1.93609
1.88632
1.83839
1.7923
1.748
1.70526
1.66423
1.62486
1.58719
1.55129
1.51735
1.48539
1.45706
1.42463
0.0999894
0.209561
0.266385
0.30661
0.339535
0.368452
0.394977
0.420104
0.444551
0.468896
0.49364
0.519224
0.546033
0.57439
0.604552
0.636701
0.670956
0.707374
0.745966
0.786711
0.829568
0.87448
0.921389
0.970227
1.02092
1.0734
1.12757
1.18335
1.24065
1.29936
1.35938
1.42062
1.48296
1.5463
1.61054
1.6756
1.74137
1.80776
1.87471
1.94213
2.00994
2.07808
2.1465
2.21512
2.28391
2.35282
2.4218
2.49083
2.55987
2.62889
2.69788
2.76681
2.83567
2.90444
2.97309
3.04162
3.11001
3.17823
3.24627
3.31408
3.38165
3.44892
3.51587
3.58243
3.64855
3.71417
3.77921
3.84361
3.90727
3.9701
4.03202
4.09293
4.15272
4.21129
4.26853
4.32435
4.37864
4.43131
4.48226
4.53141
4.57866
4.62395
4.66721
4.70838
4.74741
4.78426
4.81892
4.85137
4.88161
4.90964
4.93548
4.95915
4.98068
5.0001
5.01745
5.03277
5.04613
5.05757
5.06717
5.07496
5.08102
5.08541
5.08814
5.08916
5.08864
5.08666
5.08313
5.07815
5.07181
5.06402
5.05483
5.0443
5.03247
5.01931
5.00481
4.98898
4.97184
4.95338
4.93359
4.91241
4.88981
4.86571
4.84004
4.8127
4.78358
4.75257
4.71952
4.68428
4.64671
4.60662
4.56387
4.5183
4.46977
4.41816
4.36338
4.30537
4.24413
4.17971
4.1122
4.04177
3.96865
3.89313
3.81553
3.73619
3.6555
3.57382
3.49153
3.40896
3.32642
3.24412
3.16232
3.08126
3.00116
2.92225
2.84471
2.76872
2.69441
2.6219
2.55129
2.48264
2.41601
2.35141
2.28886
2.22836
2.16991
2.11349
2.05911
2.00679
1.95646
1.90809
1.86163
1.81696
1.7741
1.73288
1.69343
1.65581
1.62021
1.58676
1.55648
1.52338
0.110004
0.233877
0.297053
0.341659
0.378079
0.40998
0.439142
0.466648
0.493262
0.519586
0.546136
0.573357
0.601644
0.63133
0.662691
0.695939
0.731225
0.768641
0.808236
0.850016
0.893962
0.940036
0.988186
1.03835
1.09046
1.14444
1.20022
1.2577
1.31681
1.37745
1.43953
1.50296
1.56764
1.63348
1.70039
1.76828
1.83707
1.90667
1.977
2.04799
2.11955
2.19164
2.26417
2.33709
2.41035
2.4839
2.55769
2.63168
2.70584
2.78014
2.85456
2.92906
3.00364
3.07827
3.15293
3.2276
3.30227
3.37691
3.4515
3.526
3.60038
3.67459
3.74859
3.82232
3.89572
3.9687
4.0412
4.11311
4.18435
4.2548
4.32435
4.39289
4.46028
4.52641
4.59115
4.65436
4.71591
4.77569
4.83356
4.88941
4.94314
4.99463
5.04379
5.09055
5.13483
5.17657
5.21573
5.25228
5.2862
5.31749
5.34615
5.3722
5.39566
5.41658
5.43498
5.45093
5.46448
5.47569
5.48463
5.49136
5.49591
5.49817
5.49845
5.49675
5.49314
5.48763
5.48023
5.47101
5.46003
5.4473
5.43284
5.41672
5.39897
5.37962
5.35868
5.33618
5.31215
5.28661
5.25956
5.231
5.20091
5.16929
5.13608
5.10123
5.06468
5.02633
4.98607
4.94379
4.89934
4.85259
4.80337
4.75154
4.69695
4.63949
4.57904
4.51555
4.44902
4.37951
4.30713
4.23205
4.15451
4.07477
3.99315
3.90997
3.82558
3.74034
3.65458
3.56862
3.48275
3.39721
3.31225
3.2281
3.14501
3.06318
2.9828
2.90402
2.82699
2.75181
2.6786
2.60741
2.53829
2.47128
2.40637
2.34357
2.28289
2.22429
2.16779
2.1134
2.06108
2.01079
1.9625
1.91614
1.87167
1.82903
1.78826
1.74932
1.7124
1.67767
1.64574
1.61189
0.121677
0.255573
0.324166
0.372649
0.41224
0.446893
0.478517
0.508254
0.536899
0.56507
0.593284
0.621991
0.651585
0.682405
0.714742
0.748825
0.784834
0.822892
0.863077
0.905425
0.949944
0.996614
1.0454
1.09625
1.14911
1.2039
1.26057
1.31904
1.37922
1.44105
1.50443
1.5693
1.63556
1.70313
1.77194
1.84191
1.91295
1.98498
2.05794
2.13175
2.20634
2.28164
2.35758
2.43412
2.51118
2.58872
2.66669
2.74505
2.82376
2.9028
2.98213
3.06173
3.14157
3.22164
3.30193
3.3824
3.46304
3.54382
3.62472
3.70571
3.78674
3.86777
3.94875
4.0296
4.11027
4.19066
4.27068
4.35023
4.42919
4.50744
4.58486
4.66128
4.73658
4.8106
4.88317
4.95414
5.02336
5.09066
5.15589
5.21891
5.27956
5.33772
5.39326
5.44608
5.49606
5.54314
5.58725
5.62833
5.66635
5.7013
5.73316
5.76194
5.78767
5.81038
5.83011
5.84692
5.86085
5.872
5.88043
5.88614
5.88905
5.88945
5.88742
5.88298
5.87616
5.86703
5.85561
5.84197
5.82615
5.8082
5.78815
5.76607
5.74199
5.71599
5.68809
5.65835
5.62681
5.59353
5.55853
5.52187
5.48356
5.44364
5.40211
5.35898
5.3142
5.26774
5.21953
5.1695
5.11753
5.06351
5.00731
4.9488
4.88784
4.8243
4.7581
4.68919
4.61758
4.54333
4.46654
4.38739
4.30608
4.22287
4.13802
4.05185
3.96466
3.87678
3.78851
3.70014
3.61195
3.52417
3.43703
3.35079
3.26569
3.1819
3.0996
3.01895
2.94007
2.86307
2.78805
2.71509
2.64422
2.57548
2.50886
2.44439
2.38205
2.32184
2.26374
2.20776
2.15389
2.10209
2.05233
2.00456
1.95876
1.9149
1.87299
1.83307
1.79513
1.75933
1.72602
1.69143
0.132441
0.274053
0.347241
0.399058
0.441427
0.478543
0.512406
0.544201
0.57474
0.604644
0.634425
0.664526
0.695334
0.727187
0.760378
0.795148
0.831693
0.870158
0.910647
0.953223
0.997916
1.04473
1.09365
1.14464
1.19766
1.25266
1.30957
1.36835
1.42892
1.49122
1.55518
1.62074
1.68783
1.75638
1.82631
1.89757
1.97008
2.04377
2.11857
2.19442
2.27126
2.34901
2.42761
2.50701
2.58715
2.66799
2.74946
2.83153
2.91417
2.99733
3.081
3.16514
3.24973
3.33476
3.42021
3.50606
3.59229
3.67887
3.76577
3.85297
3.94042
4.02806
4.11586
4.20372
4.29158
4.37934
4.46689
4.55412
4.6409
4.72708
4.81252
4.89705
4.98048
5.06266
5.14338
5.22245
5.29969
5.37491
5.44791
5.51851
5.58653
5.65181
5.71419
5.77352
5.82968
5.88255
5.93205
5.9781
6.02065
6.05966
6.09511
6.127
6.15535
6.18017
6.20152
6.21945
6.23402
6.24531
6.2534
6.25815
6.25979
6.25845
6.25418
6.24703
6.23704
6.22428
6.2088
6.19064
6.16987
6.14652
6.12067
6.09237
6.06168
6.02867
5.99341
5.95597
5.91642
5.87485
5.83132
5.78591
5.73871
5.68978
5.63919
5.587
5.53322
5.47788
5.42097
5.36246
5.30229
5.24038
5.17664
5.11098
5.04331
4.97348
4.90144
4.82716
4.75066
4.67197
4.5912
4.5085
4.42404
4.33803
4.25073
4.16238
4.07327
3.98366
3.89382
3.80403
3.71451
3.62549
3.53718
3.44984
3.3637
3.27893
3.19567
3.11406
3.03421
2.95624
2.88024
2.80628
2.73441
2.66465
2.597
2.53147
2.46808
2.4068
2.34763
2.29056
2.2356
2.1827
2.13186
2.08303
2.0362
1.99136
1.94853
1.90775
1.86904
1.83237
1.79793
1.76269
0.141565
0.288953
0.365904
0.420503
0.465233
0.504483
0.540327
0.573978
0.606254
0.637769
0.669025
0.700446
0.732407
0.765234
0.799213
0.834586
0.871555
0.910279
0.950878
0.993436
1.03801
1.08461
1.13326
1.18394
1.23662
1.29128
1.34786
1.40634
1.46666
1.52877
1.59263
1.65818
1.72537
1.79414
1.86445
1.93623
2.00942
2.08398
2.15984
2.23695
2.31524
2.39466
2.47515
2.55666
2.63913
2.72252
2.80678
2.89187
2.97776
3.0644
3.15177
3.23985
3.32861
3.41805
3.50815
3.59889
3.69025
3.78221
3.87473
3.96779
4.06134
4.15533
4.2497
4.34438
4.43927
4.53428
4.62928
4.72416
4.81876
4.91292
5.00646
5.0992
5.19094
5.28147
5.37057
5.45801
5.54357
5.62702
5.70813
5.78669
5.86247
5.93526
6.00488
6.07115
6.1339
6.19299
6.24829
6.29972
6.3472
6.39066
6.43007
6.46542
6.49672
6.52398
6.54724
6.56656
6.58201
6.59366
6.60154
6.60564
6.60622
6.60328
6.5969
6.58713
6.57406
6.55772
6.53819
6.5155
6.48973
6.46091
6.42912
6.39442
6.35691
6.31663
6.27371
6.2282
6.18024
6.12991
6.07734
6.02264
5.96594
5.90737
5.84705
5.78508
5.72159
5.65663
5.59028
5.52257
5.45352
5.38309
5.31127
5.238
5.1633
5.08699
5.00903
4.92942
4.84817
4.76532
4.68096
4.59519
4.50815
4.42003
4.33101
4.2413
4.15112
4.0607
3.97026
3.88002
3.79019
3.70095
3.61247
3.52504
3.43889
3.35412
3.27087
3.18925
3.10935
3.03127
2.95513
2.881
2.8089
2.73884
2.67085
2.60492
2.54108
2.47932
2.41962
2.36198
2.30639
2.25284
2.20131
2.15179
2.10427
2.05874
2.01523
1.97378
1.93442
1.89707
1.86174
1.82598
0.148895
0.300146
0.379992
0.436797
0.483444
0.52447
0.562003
0.597272
0.631094
0.664071
0.696683
0.729336
0.762382
0.796127
0.830843
0.866763
0.904086
0.942974
0.983555
1.02593
1.07016
1.1163
1.16437
1.21437
1.26632
1.32018
1.37595
1.4336
1.49311
1.55444
1.61757
1.68247
1.7491
1.81741
1.88737
1.95894
2.03208
2.10675
2.18291
2.2605
2.33949
2.41982
2.50144
2.5843
2.66837
2.75358
2.83991
2.92732
3.01576
3.10521
3.19563
3.28702
3.37934
3.4726
3.56679
3.66189
3.75788
3.85474
3.95243
4.05093
4.15019
4.25017
4.35079
4.45199
4.55366
4.65571
4.75799
4.86037
4.96269
5.06476
5.16639
5.26737
5.36746
5.46644
5.56404
5.66001
5.75408
5.84599
5.93546
6.02224
6.10606
6.18668
6.26387
6.33741
6.40709
6.47274
6.5342
6.59135
6.64408
6.69233
6.73602
6.77513
6.80967
6.83964
6.86507
6.88603
6.90257
6.91476
6.92267
6.92637
6.926
6.92161
6.91324
6.90099
6.88492
6.86508
6.84153
6.81433
6.78353
6.74919
6.71138
6.67018
6.62568
6.57795
6.52712
6.47328
6.41657
6.35711
6.29508
6.23061
6.1639
6.09512
6.02446
5.95209
5.87821
5.80296
5.72648
5.6489
5.57036
5.49085
5.41043
5.32914
5.24687
5.16349
5.0792
4.99404
4.90801
4.82114
4.73349
4.64513
4.55614
4.46665
4.37677
4.28665
4.19643
4.10629
4.01639
3.92689
3.83794
3.74969
3.6622
3.57583
3.49071
3.40699
3.32475
3.24409
3.16507
3.08778
3.01238
2.9389
2.86737
2.79778
2.73016
2.66451
2.60086
2.53921
2.47955
2.42187
2.36615
2.31241
2.26063
2.21081
2.16295
2.11704
2.07313
2.03125
1.99141
1.95354
1.91753
1.88143
0.154366
0.307633
0.389502
0.447922
0.496023
0.538439
0.577334
0.613944
0.64908
0.683325
0.717138
0.750898
0.78493
0.819516
0.854907
0.891319
0.928939
0.967925
1.00841
1.05049
1.09424
1.13974
1.18701
1.23609
1.28699
1.33972
1.39429
1.4507
1.50894
1.569
1.63088
1.69458
1.76011
1.82736
1.89635
1.96705
2.03947
2.11357
2.18933
2.26672
2.3457
2.42623
2.50827
2.59179
2.67675
2.7631
2.85082
2.93986
3.03021
3.12182
3.21467
3.30873
3.40396
3.50044
3.59815
3.69705
3.79714
3.89837
4.00073
4.10418
4.20869
4.31422
4.42069
4.52802
4.63612
4.74487
4.85413
4.96375
5.07356
5.18335
5.29291
5.402
5.51037
5.61774
5.72383
5.82834
5.93097
6.03142
6.12936
6.2245
6.31654
6.40517
6.49013
6.57115
6.64799
6.72043
6.78829
6.8514
6.90964
6.96289
7.01109
7.05419
7.09218
7.12505
7.15285
7.17562
7.19341
7.20633
7.21443
7.21782
7.21665
7.21092
7.20068
7.18604
7.16703
7.14374
7.1162
7.08449
7.04864
7.00874
6.96483
6.91703
6.86539
6.81005
6.7511
6.68869
6.62294
6.55405
6.48218
6.40756
6.33038
6.25091
6.16936
6.08603
6.00119
5.91507
5.82786
5.73978
5.65063
5.56093
5.47091
5.38079
5.29064
5.20088
5.11104
5.0211
4.93106
4.84093
4.75072
4.66046
4.5702
4.47999
4.38991
4.30003
4.21045
4.12126
4.03258
3.94451
3.85718
3.77066
3.68484
3.60061
3.51776
3.43628
3.35623
3.27768
3.20065
3.12519
3.05143
2.97949
2.90935
2.84102
2.77452
2.70985
2.64705
2.58614
2.52711
2.46993
2.41461
2.36116
2.30958
2.25987
2.21204
2.16611
2.12209
2.08003
2.03993
2.00171
1.96525
1.929
0.158018
0.31156
0.394538
0.453973
0.503054
0.546456
0.58636
0.624001
0.660179
0.695458
0.730272
0.764971
0.79985
0.835162
0.871137
0.907971
0.945834
0.984871
1.02521
1.06694
1.11015
1.15491
1.20127
1.24926
1.29894
1.35032
1.40346
1.45837
1.515
1.57341
1.63362
1.69569
1.75966
1.82544
1.89303
1.96244
2.03367
2.1067
2.18154
2.25817
2.33656
2.41669
2.49855
2.58209
2.66729
2.75412
2.84257
2.93259
3.02417
3.11729
3.21192
3.30803
3.40562
3.50478
3.60545
3.70761
3.81124
3.91631
4.0228
4.13063
4.23985
4.35041
4.46222
4.57519
4.68923
4.80423
4.92004
5.03649
5.15339
5.27054
5.38769
5.50459
5.62095
5.73648
5.85085
5.96374
6.0748
6.18368
6.29002
6.39348
6.49371
6.59036
6.68312
6.77167
6.85574
6.93506
7.0094
7.07857
7.14241
7.20079
7.2536
7.30079
7.34232
7.37819
7.40843
7.43308
7.45222
7.46591
7.47427
7.47735
7.47549
7.46847
7.45641
7.43939
7.41748
7.39072
7.35917
7.32289
7.28194
7.23637
7.18627
7.13171
7.0728
7.00964
6.94237
6.87113
6.7961
6.71747
6.63546
6.5503
6.46229
6.37172
6.27888
6.1841
6.08733
5.98919
5.89014
5.79053
5.69141
5.59258
5.4941
5.39628
5.29958
5.20305
5.10722
5.0122
4.91801
4.82464
4.73208
4.6403
4.5493
4.45906
4.36958
4.28085
4.19289
4.10573
4.01939
3.93392
3.84938
3.76579
3.68299
3.6016
3.52157
3.44291
3.36564
3.28981
3.2154
3.14242
3.07131
3.00189
2.9341
2.86795
2.80341
2.74046
2.67922
2.6197
2.56189
2.50579
2.45139
2.39873
2.34782
2.29867
2.25127
2.20566
2.16186
2.1199
2.07978
2.04143
2.00478
1.96862
0.159638
0.311715
0.395088
0.455045
0.504677
0.548673
0.589225
0.62757
0.664495
0.700546
0.736132
0.771571
0.807122
0.842995
0.879429
0.9166
0.954653
0.993712
1.03389
1.07527
1.11796
1.16201
1.20744
1.25431
1.30268
1.35262
1.4042
1.45752
1.5125
1.5692
1.62766
1.68791
1.74994
1.81376
1.87945
1.94704
2.01657
2.08805
2.16149
2.23689
2.31424
2.39354
2.47478
2.55793
2.64298
2.72991
2.81869
2.90932
3.00177
3.09602
3.19205
3.28984
3.38938
3.49066
3.59369
3.69848
3.80502
3.9133
4.02329
4.13495
4.24832
4.36331
4.47984
4.5978
4.71716
4.83777
4.95949
5.08215
5.20555
5.32946
5.45364
5.57781
5.70165
5.82484
5.94704
6.06788
6.18697
6.30393
6.41835
6.52984
6.63801
6.74246
6.84282
6.93873
7.02987
7.11594
7.19666
7.27179
7.34115
7.40457
7.46192
7.51313
7.55815
7.59696
7.62958
7.65605
7.67645
7.69086
7.69941
7.70203
7.69947
7.69112
7.67718
7.65772
7.63281
7.60248
7.56681
7.52583
7.47962
7.42823
7.37174
7.31025
7.24385
7.17266
7.09683
7.01652
6.93195
6.84331
6.75087
6.65487
6.55528
6.4527
6.34759
6.24041
6.13229
6.02335
5.91385
5.80419
5.69532
5.58653
5.47864
5.37209
5.26713
5.16372
5.06206
4.96223
4.86427
4.76815
4.67382
4.58122
4.49026
4.40085
4.31289
4.22631
4.14101
4.05693
3.97404
3.89229
3.81168
3.73219
3.65377
3.5766
3.50072
3.42615
3.35288
3.28093
3.21027
3.14084
3.07295
3.00656
2.94164
2.87818
2.81617
2.75563
2.6967
2.63931
2.58342
2.52904
2.47613
2.42479
2.37503
2.32686
2.28031
2.23539
2.19214
2.15059
2.1107
2.07253
2.03598
2.00016
0.159962
0.309561
0.392452
0.452188
0.501754
0.545807
0.586527
0.625134
0.662401
0.698857
0.734886
0.770783
0.806781
0.843064
0.879881
0.917346
0.955571
0.994661
1.03471
1.0758
1.11802
1.16148
1.20613
1.25206
1.29934
1.34802
1.39816
1.44976
1.50287
1.55761
1.61405
1.67226
1.73232
1.79426
1.85812
1.92394
1.99178
2.06167
2.13363
2.20769
2.28386
2.36215
2.44255
2.52507
2.6097
2.69642
2.78522
2.87609
2.96902
3.06399
3.16098
3.25999
3.36101
3.46402
3.56906
3.67611
3.78517
3.89621
4.00919
4.12407
4.24084
4.35948
4.47993
4.6021
4.72594
4.85132
4.97806
5.10602
5.23501
5.36479
5.4951
5.62564
5.7561
5.88612
6.01534
6.14335
6.26974
6.39407
6.51592
6.63483
6.75036
6.86207
6.96954
7.07235
7.17014
7.26255
7.34927
7.43002
7.50457
7.57273
7.63434
7.6893
7.73754
7.77903
7.81378
7.84182
7.86324
7.87811
7.88659
7.88862
7.88514
7.87528
7.85926
7.83716
7.80902
7.77491
7.73486
7.68895
7.63721
7.57973
7.5166
7.44789
7.37374
7.29426
7.20957
7.11968
7.02488
6.92548
6.82182
6.71427
6.60371
6.49016
6.37412
6.25604
6.13701
6.01652
5.89555
5.77472
5.65467
5.53573
5.41847
5.30334
5.19069
5.08072
4.97361
4.86948
4.76834
4.67016
4.57485
4.48228
4.39228
4.30469
4.2193
4.13593
4.05441
3.97456
3.89625
3.81938
3.74385
3.66959
3.59653
3.52471
3.45411
3.38472
3.31651
3.24948
3.18359
3.11883
3.0553
2.993
2.93193
2.87208
2.81343
2.75594
2.69979
2.64496
2.59143
2.53921
2.4883
2.43883
2.39075
2.34407
2.29881
2.25497
2.21261
2.17178
2.13251
2.09485
2.0587
2.02348
0.158718
0.303764
0.385381
0.444413
0.493539
0.537345
0.577982
0.616651
0.654105
0.690847
0.727239
0.76355
0.799983
0.836703
0.873856
0.911583
0.949992
0.989172
1.0292
1.07014
1.11203
1.15492
1.19885
1.2439
1.29015
1.33767
1.38655
1.43687
1.48868
1.54204
1.59703
1.65374
1.71226
1.77264
1.83497
1.89931
1.96572
2.03426
2.10496
2.17788
2.25304
2.33045
2.41014
2.49211
2.57636
2.66288
2.75167
2.84272
2.93601
3.03154
3.12929
3.22925
3.33141
3.43576
3.54229
3.65101
3.76189
3.87493
3.99009
4.10736
4.2267
4.34811
4.47151
4.59683
4.72397
4.85286
4.98335
5.11531
5.24853
5.38281
5.51786
5.65341
5.78912
5.92464
6.05957
6.1935
6.32597
6.45654
6.5847
6.70999
6.8319
6.94993
7.06362
7.17251
7.27616
7.37419
7.46621
7.55193
7.63107
7.70339
7.76871
7.82689
7.87785
7.92154
7.95795
7.98712
8.0091
8.02399
8.03194
8.03309
8.02834
8.0166
7.99814
7.97303
7.9413
7.90302
7.85824
7.80699
7.74929
7.68522
7.61485
7.5383
7.45569
7.36721
7.27306
7.17367
7.06908
6.95962
6.84571
6.72806
6.60629
6.48119
6.35338
6.22346
6.09215
5.95994
5.82754
5.69569
5.56508
5.43634
5.3101
5.18691
5.06722
4.95137
4.83958
4.73198
4.62859
4.52935
4.43411