/*--------------------------------*- C++ -*----------------------------------*\
| =========                 |                                                 |
| \\      /  F ield         | OpenFOAM: The Open Source CFD Toolbox           |
|  \\    /   O peration     | Version:  4.1                                   |
|   \\  /    A nd           | Web:      www.OpenFOAM.org                      |
|    \\/     M anipulation  |                                                 |
\*---------------------------------------------------------------------------*/
FoamFile
{
    version     2.0;
    format      ascii;
    class       volScalarField;
    location    "100";
    object      nut;
}
// * * * * * * * * * * * * * * * * * * * * * * * * * * * * * * * * * * * * * //

dimensions      [0 2 -1 0 0 0 0];

internalField   nonuniform List<scalar> 
12225
(
2.68176e-05
3.54258e-05
4.03684e-05
4.29513e-05
4.4151e-05
4.4559e-05
4.45481e-05
4.43101e-05
4.40273e-05
4.36604e-05
4.33059e-05
4.29688e-05
4.26674e-05
4.23866e-05
4.21526e-05
4.19237e-05
4.17646e-05
4.1559e-05
0.000212631
8.33022e-05
5.4726e-05
4.31749e-05
3.76118e-05
3.47132e-05
3.32806e-05
3.25489e-05
3.23719e-05
3.24357e-05
3.281e-05
3.32346e-05
3.38933e-05
3.44998e-05
3.53124e-05
3.60083e-05
3.68826e-05
3.76628e-05
0.000672604
0.000310885
0.000195693
0.000143069
0.000113852
9.49471e-05
8.2397e-05
7.36039e-05
6.70524e-05
6.21618e-05
5.82322e-05
5.52518e-05
5.26876e-05
5.08067e-05
4.90581e-05
4.7859e-05
4.67568e-05
4.56336e-05
0.000875114
0.000622521
0.000467499
0.000363512
0.000300131
0.000256006
0.000225212
0.000202136
0.000185004
0.000171132
0.000160487
0.000151267
0.000144099
0.000137493
0.000132402
0.00012743
0.00012385
0.00011917
0.000879339
0.000788156
0.00071273
0.000617753
0.00054391
0.000484138
0.000438475
0.000401185
0.000372539
0.000347926
0.000328995
0.000311684
0.000298644
0.000285803
0.000276558
0.00026656
0.00026012
0.000251741
0.00085848
0.000840257
0.000818503
0.000775049
0.000728482
0.000681755
0.000640738
0.000603108
0.000571929
0.000543189
0.000520104
0.000498005
0.00048093
0.000463489
0.000450908
0.00043664
0.000427708
0.000415076
0.000853085
0.000852165
0.000845122
0.000832638
0.000817283
0.000794302
0.000770968
0.000746257
0.000723609
0.000700777
0.000681156
0.000661263
0.000645092
0.000627983
0.000615093
0.000600194
0.000590418
0.000576871
0.000851863
0.000852182
0.000850462
0.000847008
0.000840819
0.000831995
0.000821484
0.000808243
0.000794836
0.000780325
0.000767045
0.000752805
0.000740607
0.000727319
0.000716721
0.000704497
0.000695748
0.000684198
0.000851704
0.000851639
0.000851174
0.000850258
0.000848409
0.000845187
0.000840923
0.000835291
0.000828337
0.000820961
0.000813279
0.000804685
0.00079683
0.000788021
0.000780513
0.000771993
0.000764999
0.000756741
0.000851749
0.000851403
0.000851079
0.000850687
0.000850164
0.000849198
0.000847832
0.000845885
0.000843392
0.000840194
0.000836872
0.000832764
0.000828839
0.000824182
0.000819996
0.000815096
0.000810972
0.000805675
0.00085178
0.000851364
0.000851007
0.000850643
0.000850326
0.000849915
0.000849464
0.000848801
0.000848058
0.000846956
0.000845821
0.000844273
0.000842771
0.00084082
0.000839068
0.000836777
0.000834946
0.000832331
0.000851785
0.000851364
0.00085099
0.000850615
0.000850291
0.00084995
0.000849653
0.000849298
0.000848978
0.00084855
0.000848148
0.000847598
0.000847086
0.000846389
0.00084577
0.000844923
0.000844221
0.000843234
0.000851783
0.000851365
0.000850981
0.000850607
0.000850268
0.000849932
0.000849631
0.000849325
0.000849052
0.000848762
0.0008485
0.000848209
0.000847944
0.000847637
0.000847357
0.000847024
0.000846724
0.000846362
0.000851781
0.000851365
0.000850975
0.000850602
0.000850254
0.000849919
0.000849607
0.000849306
0.000849026
0.000848753
0.000848499
0.000848249
0.000848014
0.000847782
0.000847562
0.000847342
0.000847133
0.000846922
0.00085178
0.000851363
0.00085097
0.000850596
0.000850244
0.000849908
0.000849591
0.000849289
0.000849003
0.000848729
0.00084847
0.000848221
0.000847985
0.000847758
0.000847542
0.000847333
0.000847135
0.000846942
0.000851779
0.000851362
0.000850967
0.000850592
0.000850237
0.0008499
0.00084958
0.000849275
0.000848986
0.00084871
0.000848447
0.000848196
0.000847956
0.000847727
0.000847508
0.000847297
0.000847097
0.000846904
0.000851779
0.000851362
0.000850965
0.00085059
0.000850233
0.000849894
0.000849572
0.000849266
0.000848974
0.000848696
0.000848431
0.000848177
0.000847935
0.000847704
0.000847483
0.00084727
0.000847067
0.000846872
0.000851779
0.000851361
0.000850965
0.000850588
0.000850231
0.000849891
0.000849569
0.00084926
0.000848968
0.000848688
0.000848423
0.000848167
0.000847924
0.00084769
0.000847469
0.000847254
0.000847051
0.000846854
0.000851779
0.000851362
0.000850965
0.000850589
0.000850231
0.000849892
0.000849568
0.000849261
0.000848967
0.000848688
0.00084842
0.000848166
0.000847921
0.000847688
0.000847464
0.000847251
0.000847045
0.000846849
0.000851779
0.000851363
0.000850967
0.000850591
0.000850234
0.000849894
0.000849572
0.000849264
0.000848971
0.000848691
0.000848424
0.000848168
0.000847923
0.000847687
0.000847461
0.000847243
0.000847033
0.00084683
0.000851779
0.000851365
0.000850968
0.000850595
0.000850237
0.000849901
0.000849576
0.00084927
0.000848972
0.000848689
0.000848408
0.000848139
0.000847868
0.000847607
0.000847338
0.000847081
0.000846809
0.000846552
0.000851776
0.000851369
0.000850969
0.000850603
0.000850242
0.000849906
0.000849559
0.000849223
0.000848857
0.000848487
0.000848068
0.000847639
0.000847143
0.000846645
0.000846063
0.000845498
0.000844833
0.000844214
0.000851765
0.00085139
0.00085097
0.000850622
0.00085019
0.000849724
0.000849093
0.000848358
0.000847391
0.000846282
0.000844924
0.00084344
0.000841719
0.000839925
0.000837893
0.000835915
0.000833642
0.000831576
0.000851752
0.000851487
0.000850905
0.000850325
0.000848946
0.000847047
0.000844298
0.000840949
0.000836714
0.000832072
0.000826772
0.000821306
0.000815406
0.00080945
0.000803441
0.000797545
0.000791348
0.000785867
0.000851934
0.000851465
0.000848966
0.000844874
0.000836864
0.000827194
0.000815569
0.000802435
0.000788002
0.0007739
0.000759245
0.000745537
0.00073163
0.000719025
0.000706213
0.000695023
0.000683367
0.000673679
0.000852438
0.000845502
0.000827648
0.000805973
0.000773757
0.000741332
0.000708101
0.000677837
0.000648461
0.000622852
0.000598278
0.000577339
0.000557081
0.000540133
0.000523389
0.00050974
0.000495726
0.000484756
0.000834692
0.000800293
0.000722678
0.000644706
0.000577953
0.000523964
0.000477008
0.00043966
0.00040691
0.000380971
0.000357399
0.000338886
0.000321359
0.000307804
0.000294364
0.000284182
0.000273551
0.000265769
0.000747075
0.00056531
0.000424466
0.000338496
0.000281665
0.000241056
0.000209945
0.00018706
0.00016847
0.000154492
0.000142413
0.000133311
0.000124951
0.000118729
0.00011265
0.000108239
0.000103638
0.000100405
0.000345076
0.000180402
0.000124372
9.6589e-05
7.95181e-05
6.85116e-05
6.11002e-05
5.60943e-05
5.25288e-05
5.00613e-05
4.82378e-05
4.70024e-05
4.60673e-05
4.54956e-05
4.50555e-05
4.48669e-05
4.47076e-05
4.47586e-05
3.41196e-05
4.01627e-05
4.47619e-05
4.78936e-05
5.04599e-05
5.25064e-05
5.40877e-05
5.5275e-05
5.61287e-05
5.67199e-05
5.70945e-05
5.7312e-05
5.73959e-05
5.73613e-05
5.73353e-05
5.71906e-05
5.70379e-05
5.68562e-05
5.83533e-06
1.78067e-05
2.1713e-05
2.45171e-05
2.65839e-05
2.81272e-05
2.93107e-05
3.01972e-05
3.11251e-05
3.18935e-05
3.26242e-05
3.33465e-05
3.41615e-05
3.5072e-05
3.61869e-05
3.74835e-05
3.89316e-05
4.04229e-05
4.20118e-05
4.36466e-05
4.53814e-05
4.71716e-05
4.90801e-05
5.10304e-05
5.30586e-05
5.51108e-05
5.72229e-05
5.93382e-05
6.14793e-05
6.35995e-05
6.57213e-05
6.78038e-05
6.98697e-05
7.18838e-05
7.38684e-05
7.57932e-05
7.76813e-05
7.9507e-05
8.12932e-05
8.30172e-05
8.4702e-05
8.63271e-05
8.7915e-05
8.94472e-05
9.09446e-05
9.23898e-05
9.38036e-05
9.51693e-05
9.65062e-05
9.77981e-05
9.9064e-05
0.00010029
0.000101493
0.000102658
0.000103802
0.000104911
0.000105999
0.000107053
0.000108088
0.000109088
0.00011007
0.000111018
0.000111947
0.000112842
0.000113719
0.000114561
0.000115383
0.000116171
0.00011694
0.000117674
0.000118389
0.000119067
0.000119725
0.000120345
0.000120944
0.000121506
0.00012205
0.000122561
0.000123058
0.000123525
0.000123969
0.000124366
0.000124727
0.000125128
0.000125488
0.000125829
0.00012618
0.000126507
0.000126842
0.000127172
0.000127515
0.000127808
0.000128242
0.000128831
0.000128808
0.000128585
0.000128929
0.000129052
0.000129315
0.000129527
0.0001296
0.000129268
0.000128192
0.000129505
0.000128659
0.000131295
0.000128775
0.000131614
0.000130807
0.0001309
0.000130424
0.000129293
0.000130068
0.000130658
0.000131911
0.00013121
0.000130758
0.000129435
0.000129859
0.000129318
0.000130534
0.000129994
0.00012996
0.000129593
0.000129285
0.000128908
0.000128494
0.000128035
0.000127527
0.000126975
0.000126378
0.000125731
0.000125026
0.000124263
0.000123437
0.000122551
0.000121639
0.000120635
0.000119549
0.000118416
0.000117214
0.000115944
0.000114626
0.000113263
0.000111769
0.00011026
0.00010892
0.000106643
0.000104608
0.000103457
0.000102409
0.00010135
0.000100271
9.91731e-05
9.80639e-05
9.69695e-05
9.5857e-05
9.47122e-05
9.35233e-05
9.24067e-05
9.13269e-05
9.02058e-05
8.90743e-05
8.79552e-05
8.68619e-05
8.5785e-05
8.47253e-05
8.3688e-05
8.26741e-05
8.16828e-05
8.07163e-05
7.9772e-05
7.88513e-05
7.79435e-05
7.70677e-05
7.61511e-05
7.53411e-05
7.42151e-05
7.38885e-05
7.09612e-05
9.87919e-06
6.15001e-05
0.000124952
0.000173529
0.000207317
0.000231067
0.000247554
0.000258264
0.000263772
0.000266426
0.000268036
0.000269631
0.000271741
0.000274537
0.000277972
0.000281835
0.000286039
0.000290746
0.000296119
0.000302213
0.000309085
0.000316764
0.000325307
0.000334765
0.000345183
0.000356555
0.00036887
0.000382085
0.000396109
0.000410967
0.000426564
0.000442781
0.000459519
0.000476658
0.000494092
0.0005117
0.000529383
0.000547042
0.000564605
0.000581996
0.000599165
0.000616061
0.000632656
0.000648919
0.000664836
0.000680392
0.000695585
0.000710406
0.000724856
0.000738922
0.000752599
0.000765923
0.000778939
0.00079165
0.00080407
0.000816203
0.000828058
0.000839633
0.000850938
0.000861967
0.000872726
0.000883206
0.000893411
0.000903328
0.00091296
0.00092229
0.000931319
0.000940029
0.000948426
0.000956494
0.000964243
0.000971671
0.000978769
0.000985475
0.000991797
0.000997721
0.00100326
0.00100839
0.00101313
0.00101746
0.00102139
0.00102497
0.00102833
0.00103149
0.00103427
0.0010369
0.00103935
0.0010416
0.00104374
0.00104572
0.00104759
0.00104927
0.00105091
0.00105203
0.00105169
0.00105304
0.00105544
0.00105766
0.00106064
0.0010635
0.00106656
0.00106978
0.00107392
0.00107901
0.00108028
0.00108553
0.0010856
0.00109036
0.00109189
0.001095
0.00109823
0.00110167
0.00110701
0.0011116
0.001117
0.0011202
0.00111854
0.001119
0.00112436
0.00112046
0.00112586
0.00112917
0.00113457
0.00113722
0.00113983
0.00114211
0.00114404
0.00114556
0.00114661
0.00114715
0.0011472
0.0011467
0.00114546
0.00114351
0.00114079
0.0011373
0.0011331
0.00112821
0.00112244
0.00111588
0.00110856
0.00110049
0.00109172
0.00108238
0.00107226
0.0010613
0.00105081
0.00103792
0.00102088
0.00100252
0.000983567
0.000964321
0.000944956
0.000925622
0.000906359
0.000887329
0.000868269
0.000849602
0.000831208
0.000813376
0.000796139
0.000779132
0.000762517
0.00074638
0.000730711
0.000715395
0.00070048
0.000686006
0.000671941
0.000658285
0.000645021
0.000632139
0.000619542
0.000607365
0.000595107
0.000583631
0.000570849
0.000559841
0.000542775
0.000490029
1.24878e-05
9.01618e-05
0.000189024
0.00027217
0.000337852
0.000388172
0.000426089
0.000454177
0.000474475
0.000489012
0.000499655
0.000507964
0.000515171
0.000522184
0.000529653
0.000538018
0.000547611
0.000558679
0.000571384
0.000585804
0.000601978
0.000619922
0.000639653
0.000661177
0.000684475
0.000709477
0.000736053
0.000764448
0.000795111
0.000827278
0.000860514
0.000894563
0.000929234
0.00096436
0.00099977
0.00103528
0.00107066
0.00110581
0.00114063
0.00117503
0.00120893
0.00124227
0.00127501
0.00130711
0.00133856
0.00136935
0.00139946
0.0014289
0.00145768
0.0014858
0.00151329
0.00154016
0.00156645
0.00159217
0.00161734
0.00164196
0.00166605
0.00168962
0.00171268
0.00173521
0.00175724
0.00177875
0.00179974
0.0018202
0.00184013
0.00185951
0.00187833
0.00189658
0.00191425
0.00193131
0.00194776
0.00196358
0.00197876
0.00199326
0.00200706
0.00202016
0.00203254
0.00204419
0.00205512
0.00206534
0.00207488
0.0020838
0.00209212
0.00209985
0.00210697
0.00211358
0.00211967
0.00212526
0.0021304
0.00213509
0.00213937
0.00214322
0.00214669
0.00214973
0.00215229
0.00215593
0.00215984
0.00216373
0.00216784
0.00217189
0.0021761
0.00218051
0.00218515
0.00218941
0.00219221
0.00219637
0.00219865
0.00220283
0.0022061
0.00220998
0.00221399
0.00221845
0.00222392
0.00222856
0.00223364
0.00223879
0.00224002
0.00224123
0.00224356
0.00224349
0.0022475
0.00225056
0.0022539
0.00225607
0.00225767
0.0022586
0.00225879
0.00225811
0.00225648
0.00225379
0.00224999
0.00224499
0.00223867
0.00223097
0.00222185
0.00221128
0.00219927
0.00218587
0.00217098
0.0021547
0.00213694
0.00211781
0.00209738
0.00207579
0.002053
0.00202898
0.00200447
0.0019781
0.00194832
0.00191654
0.00188368
0.00185025
0.00181655
0.00178281
0.00174915
0.00171579
0.00168281
0.00165048
0.00161876
0.0015886
0.00155938
0.00153012
0.00150166
0.00147415
0.00144751
0.00142134
0.00139585
0.00137116
0.00134713
0.00132376
0.00130104
0.00127889
0.00125718
0.00123602
0.00121478
0.00119434
0.00117239
0.00115087
0.00113108
0.00106302
1.44128e-05
0.00011743
0.000243201
0.00035045
0.000437382
0.000506372
0.000560339
0.000602004
0.000633824
0.000658043
0.000676728
0.000691741
0.000704727
0.000717066
0.000729872
0.000743981
0.000759992
0.000778291
0.000799105
0.000822534
0.000848611
0.000877316
0.000908617
0.000942457
0.000978774
0.0010175
0.0010586
0.00110167
0.00114608
0.0011917
0.00123842
0.00128596
0.0013341
0.00138277
0.00143182
0.00148113
0.0015304
0.00157935
0.00162782
0.0016757
0.0017229
0.00176935
0.00181501
0.00185983
0.00190379
0.00194688
0.00198911
0.00203046
0.00207094
0.00211058
0.00214939
0.00218739
0.00222461
0.00226105
0.00229674
0.0023317
0.00236593
0.00239945
0.00243226
0.00246437
0.00249578
0.00252649
0.0025565
0.0025858
0.00261437
0.00264221
0.0026693
0.00269563
0.00272117
0.00274591
0.00276983
0.0027929
0.00281511
0.00283641
0.0028568
0.00287624
0.00289472
0.00291224
0.00292879
0.00294438
0.00295904
0.00297281
0.00298571
0.00299773
0.0030089
0.00301925
0.00302882
0.00303762
0.0030457
0.00305308
0.00305982
0.00306596
0.00307157
0.00307672
0.00308158
0.00308661
0.00309154
0.00309628
0.00310086
0.00310524
0.00310949
0.00311363
0.00311756
0.00312102
0.0031239
0.00312686
0.00312919
0.00313198
0.00313466
0.00313747
0.00313993
0.003142
0.00314565
0.00314995
0.00315255
0.0031536
0.00315395
0.00315434
0.0031549
0.00315467
0.00315558
0.003156
0.00315609
0.00315537
0.0031539
0.00315158
0.00314831
0.00314396
0.00313843
0.00313159
0.00312333
0.00311356
0.00310216
0.00308905
0.00307415
0.00305743
0.00303889
0.00301853
0.00299638
0.00297266
0.00294708
0.00291973
0.00289073
0.0028602
0.00282822
0.00279486
0.00276041
0.00272429
0.00268573
0.00264533
0.00260374
0.00256145
0.00251881
0.00247606
0.00243339
0.00239099
0.00234906
0.00230779
0.00226724
0.00222788
0.00218963
0.00215255
0.00211703
0.00208293
0.00205014
0.00201758
0.001986
0.00195557
0.00192592
0.00189711
0.00186912
0.00184181
0.00181505
0.00178882
0.00176265
0.00173702
0.00171042
0.00168305
0.00165993
0.00159418
1.59347e-05
0.000140689
0.000290258
0.000418054
0.000522597
0.000606846
0.000673973
0.0007271
0.000768981
0.000802088
0.000828681
0.000850821
0.000870366
0.000888931
0.000907866
0.000928226
0.000950786
0.000976061
0.00100436
0.00103582
0.00107048
0.00110829
0.00114916
0.00119296
0.00123953
0.00128867
0.00134014
0.00139362
0.00144876
0.0015053
0.00156303
0.00162173
0.00168118
0.00174104
0.00180106
0.00186099
0.00192059
0.00197975
0.00203835
0.0020963
0.00215348
0.00220984
0.0022653
0.00231984
0.00237341
0.00242601
0.00247761
0.00252823
0.00257787
0.00262653
0.00267424
0.00272101
0.00276686
0.00281181
0.00285588
0.00289907
0.00294142
0.00298292
0.00302358
0.00306342
0.00310244
0.00314063
0.00317798
0.0032145
0.00325017
0.00328498
0.00331891
0.00335194
0.00338405
0.00341521
0.0034454
0.0034746
0.00350276
0.00352987
0.00355588
0.00358077
0.00360452
0.0036271
0.00364852
0.00366876
0.00368785
0.0037058
0.00372261
0.00373831
0.0037529
0.00376641
0.00377887
0.0037903
0.00380074
0.00381024
0.00381884
0.0038266
0.0038336
0.00383992
0.00384569
0.00385106
0.00385596
0.00386037
0.0038643
0.00386776
0.00387079
0.0038734
0.00387556
0.00387722
0.00387845
0.00387929
0.00387977
0.00388012
0.00388072
0.00388146
0.00388192
0.00388086
0.00388098
0.00388072
0.00387971
0.00387806
0.0038759
0.00387358
0.00387108
0.00386824
0.00386547
0.00386231
0.00385864
0.00385428
0.00384914
0.00384315
0.00383617
0.00382809
0.00381877
0.0038081
0.00379595
0.00378219
0.0037667
0.00374939
0.00373015
0.00370894
0.00368573
0.00366052
0.00363335
0.00360441
0.0035733
0.00354024
0.00350538
0.00346883
0.0034307
0.00339109
0.00335013
0.00330758
0.00326317
0.0032172
0.00317011
0.00312232
0.00307413
0.00302581
0.00297756
0.00292959
0.00288209
0.00283525
0.00278917
0.00274413
0.00270019
0.00265743
0.00261607
0.00257651
0.00253901
0.00250292
0.00246836
0.00243536
0.00240305
0.00237169
0.0023413
0.00231165
0.00228262
0.00225407
0.00222569
0.00219767
0.00216916
0.00213965
0.00211415
0.00205086
1.71533e-05
0.000160801
0.000331793
0.000477996
0.000598083
0.000695883
0.000774786
0.000838325
0.000889549
0.000931145
0.000965534
0.000994904
0.00102123
0.00104624
0.00107141
0.00109791
0.00112663
0.00115819
0.00119297
0.00123116
0.00127282
0.00131789
0.00136624
0.0014177
0.00147204
0.00152901
0.00158832
0.00164967
0.00171275
0.00177727
0.00184295
0.00190954
0.00197676
0.00204434
0.00211204
0.00217962
0.0022469
0.00231372
0.00237995
0.00244548
0.00251022
0.00257408
0.00263701
0.00269897
0.00275991
0.00281982
0.00287868
0.00293649
0.00299325
0.00304898
0.00310367
0.00315735
0.00321004
0.00326175
0.0033125
0.0033623
0.00341118
0.00345914
0.00350619
0.00355234
0.00359759
0.00364194
0.00368539
0.00372792
0.00376953
0.00381019
0.0038499
0.00388862
0.00392632
0.00396299
0.00399858
0.00403307
0.00406641
0.00409857
0.00412951
0.00415918
0.00418756
0.00421461
0.00424031
0.00426466
0.00428764
0.00430925
0.00432951
0.0043484
0.00436594
0.00438214
0.00439703
0.00441062
0.00442296
0.00443409
0.00444405
0.00445289
0.00446068
0.00446748
0.00447338
0.00447845
0.0044827
0.00448613
0.00448877
0.00449063
0.00449176
0.00449219
0.00449191
0.00449096
0.00448968
0.00448748
0.00448484
0.00448211
0.00447988
0.00447672
0.00447274
0.00446827
0.00446376
0.00445888
0.0044535
0.00444765
0.00444141
0.00443492
0.00442818
0.00442115
0.00441392
0.0044063
0.00439822
0.00438955
0.00438022
0.00437013
0.00435917
0.00434723
0.00433418
0.00431988
0.00430421
0.00428702
0.00426819
0.00424759
0.00422513
0.00420072
0.00417431
0.00414589
0.00411545
0.00408304
0.00404859
0.0040122
0.00397395
0.00393398
0.00389238
0.00384925
0.0038047
0.00375868
0.00371115
0.00366229
0.00361243
0.00356187
0.00351091
0.00345978
0.00340869
0.00335785
0.00330743
0.00325763
0.00320857
0.00316044
0.00311334
0.00306738
0.0030227
0.00297954
0.00293812
0.00289892
0.00286193
0.00282711
0.00279392
0.00276218
0.0027316
0.00270149
0.00267197
0.00264281
0.0026139
0.00258524
0.00255638
0.00252674
0.00249983
0.0024437
1.81543e-05
0.000178459
0.000368227
0.000530852
0.000664987
0.00077522
0.000865089
0.000938466
0.000998652
0.00104851
0.00109059
0.00112717
0.00116026
0.00119166
0.00122288
0.00125518
0.0012895
0.00132655
0.00136678
0.00141042
0.00145756
0.00150817
0.00156212
0.00161919
0.00167917
0.00174177
0.0018067
0.00187364
0.00194231
0.00201239
0.00208361
0.00215568
0.00222835
0.00230136
0.00237448
0.0024475
0.00252023
0.00259253
0.00266425
0.00273529
0.00280554
0.00287493
0.0029434
0.0030109
0.00307738
0.00314283
0.00320722
0.00327055
0.00333282
0.00339403
0.0034542
0.00351332
0.00357143
0.00362854
0.00368467
0.00373982
0.00379402
0.00384728
0.0038996
0.003951
0.00400148
0.00405104
0.00409966
0.00414734
0.00419407
0.00423982
0.00428457
0.0043283
0.00437096
0.00441253
0.00445297
0.00449223
0.00453026
0.00456701
0.00460245
0.0046365
0.00466914
0.00470031
0.00472998
0.00475811
0.00478468
0.00480968
0.00483309
0.0048549
0.0048751
0.00489371
0.00491073
0.00492618
0.00494008
0.00495248
0.0049634
0.00497288
0.00498098
0.00498775
0.00499326
0.00499754
0.00500065
0.0050026
0.00500344
0.00500317
0.00500185
0.00499952
0.00499617
0.00499164
0.00498659
0.00498141
0.00497594
0.00496937
0.00496214
0.0049542
0.00494553
0.00493629
0.00492665
0.00491656
0.004906
0.00489502
0.00488369
0.00487207
0.0048602
0.00484807
0.0048357
0.00482303
0.00481002
0.00479659
0.00478268
0.00476821
0.0047531
0.00473723
0.00472049
0.00470274
0.00468385
0.00466367
0.00464208
0.00461892
0.00459407
0.00456744
0.00453895
0.00450856
0.00447623
0.004442
0.00440584
0.00436782
0.004328
0.00428649
0.00424337
0.00419875
0.00415272
0.00410531
0.0040566
0.00400673
0.00395594
0.00390449
0.00385263
0.00380058
0.00374853
0.00369667
0.00364519
0.00359425
0.00354402
0.00349464
0.00344622
0.00339886
0.00335268
0.00330784
0.00326454
0.00322307
0.00318411
0.00314804
0.00311431
0.00308249
0.00305219
0.00302289
0.00299443
0.00296609
0.00293798
0.00291001
0.00288197
0.00285338
0.00282627
0.00277763
1.91018e-05
0.000193233
0.000399008
0.00057623
0.000723191
0.000844989
0.000945223
0.00102802
0.00109687
0.0011548
0.00120443
0.00124808
0.0012878
0.0013254
0.00136241
0.00140009
0.00143946
0.00148125
0.00152597
0.00157392
0.00162523
0.00167989
0.00173779
0.00179875
0.00186254
0.00192889
0.00199751
0.0020681
0.00214037
0.00221402
0.00228878
0.00236437
0.00244054
0.00251706
0.00259371
0.0026703
0.00274664
0.0028226
0.00289803
0.00297282
0.00304689
0.00312014
0.00319252
0.00326397
0.00333445
0.00340394
0.0034724
0.00353984
0.00360625
0.00367163
0.00373598
0.00379932
0.00386167
0.00392304
0.00398344
0.0040429
0.00410143
0.00415904
0.00421574
0.00427154
0.00432645
0.00438045
0.00443354
0.00448571
0.00453695
0.00458722
0.0046365
0.00468476
0.00473195
0.00477803
0.00482295
0.00486667
0.00490911
0.00495022
0.00498993
0.00502819
0.00506492
0.00510007
0.00513358
0.0051654
0.00519548
0.00522379
0.00525028
0.00527494
0.00529775
0.00531869
0.00533777
0.00535498
0.00537034
0.00538387
0.00539559
0.00540554
0.00541375
0.00542027
0.00542515
0.00542844
0.00543019
0.00543044
0.00542924
0.00542661
0.00542253
0.00541667
0.00540957
0.00540188
0.0053938
0.00538503
0.0053748
0.0053635
0.00535127
0.00533816
0.00532423
0.00530959
0.00529435
0.00527855
0.00526225
0.0052455
0.00522839
0.00521099
0.00519336
0.00517552
0.00515751
0.00513932
0.00512096
0.0051024
0.0050836
0.00506452
0.00504509
0.00502521
0.00500479
0.00498369
0.0049618
0.00493896
0.00491502
0.00488983
0.00486324
0.00483513
0.00480541
0.00477399
0.00474084
0.00470596
0.00466933
0.00463099
0.00459099
0.00454937
0.00450623
0.00446164
0.00441569
0.00436845
0.00432003
0.00427056
0.00422024
0.0041693
0.00411794
0.00406635
0.00401473
0.00396323
0.00391205
0.00386135
0.00381129
0.00376201
0.00371361
0.0036662
0.00361986
0.00357475
0.00353101
0.00348888
0.00344883
0.0034121
0.00337829
0.00334675
0.00331699
0.00328858
0.00326123
0.0032345
0.00320818
0.00318178
0.0031553
0.00312841
0.00310205
0.00306001
2.0197e-05
0.000203016
0.000422419
0.000613083
0.000772038
0.000904735
0.00101482
0.00110663
0.00118382
0.00124954
0.00130647
0.00135697
0.00140309
0.00144662
0.00148908
0.00153174
0.00157561
0.00162147
0.00166987
0.00172116
0.00177551
0.00183297
0.00189347
0.00195685
0.00202291
0.00209141
0.00216208
0.00223465
0.00230882
0.00238434
0.00246093
0.00253834
0.00261634
0.00269471
0.00277324
0.00285176
0.0029301
0.00300812
0.00308569
0.00316271
0.00323907
0.0033147
0.00338954
0.00346353
0.00353663
0.00360881
0.00368004
0.00375031
0.00381963
0.00388797
0.00395536
0.00402181
0.00408732
0.00415192
0.00421563
0.00427846
0.00434043
0.00440155
0.00446184
0.0045213
0.00457993
0.00463774
0.00469471
0.00475083
0.00480608
0.00486044
0.00491386
0.00496631
0.00501773
0.00506808
0.0051173
0.00516531
0.00521205
0.00525744
0.0053014
0.00534385
0.00538471
0.00542389
0.00546132
0.00549692
0.00553062
0.00556237
0.0055921
0.00561977
0.00564533
0.00566876
0.00569004
0.00570915
0.00572609
0.00574087
0.00575349
0.00576399
0.00577238
0.0057787
0.005783
0.00578533
0.00578575
0.00578432
0.0057811
0.005776
0.00576875
0.00575979
0.00574972
0.00573884
0.00572695
0.00571344
0.0056985
0.00568227
0.00566485
0.00564635
0.00562686
0.00560648
0.00558533
0.00556349
0.00554105
0.00551813
0.0054948
0.00547118
0.00544734
0.00542337
0.00539932
0.00537526
0.00535121
0.00532721
0.00530325
0.00527933
0.00525539
0.0052314
0.00520725
0.00518285
0.00515807
0.00513276
0.00510678
0.00507993
0.00505206
0.00502304
0.00499273
0.00496104
0.0049279
0.00489327
0.00485714
0.00481951
0.00478038
0.00473979
0.00469777
0.0046544
0.00460973
0.00456385
0.00451687
0.00446891
0.00442014
0.00437077
0.004321
0.00427095
0.00422081
0.00417073
0.00412089
0.00407145
0.00402259
0.00397445
0.00392711
0.00388066
0.00383519
0.00379084
0.00374775
0.00370613
0.00366636
0.00362971
0.00359634
0.00356545
0.00353651
0.0035091
0.00348291
0.00345763
0.00343302
0.00340876
0.00338435
0.0033595
0.00333449
0.00329806
2.10631e-05
0.000209484
0.000439769
0.00064196
0.000811567
0.000954128
0.00107347
0.00117374
0.0012588
0.00133188
0.00139573
0.00145271
0.00150487
0.00155396
0.00160147
0.00164865
0.00169651
0.00174584
0.00179721
0.00185102
0.00190749
0.00196671
0.00202866
0.00209323
0.00216026
0.00222954
0.00230085
0.00237393
0.00244853
0.00252442
0.00260133
0.00267906
0.00275738
0.00283609
0.00291501
0.00299397
0.00307283
0.00315144
0.0032297
0.00330751
0.00338476
0.00346138
0.00353732
0.00361251
0.00368691
0.0037605
0.00383325
0.00390514
0.00397617
0.00404633
0.00411565
0.00418411
0.00425176
0.0043186
0.00438466
0.00444996
0.00451452
0.00457835
0.00464147
0.00470389
0.00476561
0.00482663
0.00488695
0.00494654
0.00500539
0.00506347
0.00512072
0.00517712
0.00523259
0.00528707
0.0053405
0.00539279
0.00544386
0.0054936
0.00554193
0.00558873
0.00563391
0.00567735
0.00571896
0.00575864
0.00579628
0.00583181
0.00586513
0.00589616
0.00592486
0.00595116
0.00597501
0.00599639
0.00601527
0.00603165
0.00604552
0.00605688
0.00606576
0.00607218
0.00607619
0.00607784
0.00607719
0.00607431
0.00606927
0.00606172
0.006052
0.00604033
0.0060274
0.00601304
0.00599686
0.00597894
0.00595935
0.0059382
0.0059156
0.00589168
0.00586655
0.00584032
0.00581312
0.00578509
0.00575634
0.005727
0.00569721
0.0056671
0.00563679
0.0056064
0.00557604
0.00554582
0.00551581
0.00548609
0.00545673
0.00542774
0.00539913
0.00537087
0.00534292
0.00531517
0.00528752
0.00525985
0.00523203
0.00520379
0.00517499
0.00514548
0.0051151
0.00508372
0.00505122
0.00501754
0.00498266
0.00494655
0.00490917
0.00487049
0.00483052
0.00478929
0.00474685
0.00470327
0.00465864
0.00461307
0.0045667
0.00451979
0.00447246
0.00442482
0.00437701
0.00432919
0.00428151
0.00423415
0.00418731
0.00414113
0.00409566
0.00405099
0.0040072
0.00396442
0.00392283
0.00388262
0.00384415
0.0038086
0.00377628
0.00374642
0.00371854
0.00369226
0.0036673
0.00364339
0.00362033
0.00359789
0.00357573
0.00355303
0.00352967
0.00349796
2.17685e-05
0.000213706
0.00045212
0.000663642
0.000842434
0.000993527
0.00112097
0.00122883
0.00132103
0.00140084
0.00147103
0.00153396
0.00159163
0.00164576
0.00169782
0.001749
0.0018003
0.0018525
0.0019062
0.0019618
0.00201957
0.00207966
0.00214208
0.00220678
0.00227365
0.00234253
0.00241323
0.00248553
0.00255924
0.00263412
0.00270999
0.00278663
0.00286385
0.00294149
0.00301937
0.00309736
0.00317531
0.00325312
0.00333067
0.00340786
0.00348462
0.00356087
0.00363656
0.00371163
0.00378603
0.00385975
0.00393276
0.00400504
0.00407659
0.00414742
0.00421752
0.00428692
0.00435564
0.00442371
0.00449116
0.00455802
0.00462431
0.00469005
0.00475525
0.00481993
0.00488411
0.00494777
0.00501092
0.00507354
0.00513561
0.00519709
0.00525795
0.00531811
0.00537752
0.00543611
0.00549378
0.00555044
0.00560598
0.00566029
0.00571325
0.00576472
0.00581459
0.00586271
0.00590896
0.0059532
0.0059953
0.00603514
0.00607261
0.00610761
0.00614002
0.00616979
0.00619682
0.00622107
0.00624249
0.00626105
0.00627672
0.00628952
0.00629942
0.00630647
0.0063107
0.00631215
0.00631089
0.00630699
0.00630044
0.00629112
0.00627941
0.00626546
0.00624966
0.00623183
0.00621189
0.00618989
0.00616591
0.00614007
0.00611249
0.0060833
0.00605264
0.00602065
0.00598748
0.00595327
0.00591819
0.0058824
0.00584607
0.00580936
0.00577245
0.00573549
0.00569865
0.00566208
0.00562591
0.00559028
0.0055553
0.00552105
0.00548758
0.00545491
0.00542303
0.00539185
0.00536131
0.00533131
0.0053018
0.00527236
0.00524286
0.00521319
0.00518313
0.00515252
0.00512118
0.00508898
0.00505594
0.005022
0.00498704
0.004951
0.00491382
0.00487549
0.00483603
0.0047955
0.00475397
0.00471152
0.00466822
0.0046245
0.00458037
0.00453585
0.00449107
0.0044462
0.00440136
0.00435673
0.0043126
0.00426907
0.00422617
0.00418394
0.00414249
0.00410197
0.00406257
0.00402452
0.00398818
0.00395465
0.00392392
0.00389545
0.00386887
0.00384387
0.00382018
0.00379762
0.003776
0.00375516
0.00373482
0.0037142
0.00369258
0.00366482
2.23237e-05
0.000215984
0.000459922
0.000678474
0.000864599
0.00102271
0.00115696
0.00127131
0.00136968
0.00145534
0.00153106
0.00159916
0.00166163
0.00172011
0.00177604
0.00183056
0.00188465
0.00193906
0.00199439
0.00205106
0.00210937
0.00216949
0.00223149
0.00229536
0.00236105
0.00242843
0.00249736
0.00256769
0.00263924
0.00271184
0.00278532
0.00285953
0.00293431
0.00300949
0.00308493
0.00316052
0.00323616
0.00331174
0.00338717
0.00346236
0.00353724
0.00361173
0.0036858
0.00375939
0.00383247
0.003905
0.00397697
0.00404838
0.00411922
0.0041895
0.00425923
0.00432842
0.0043971
0.00446535
0.00453321
0.00460069
0.00466784
0.00473466
0.00480119
0.00486744
0.00493343
0.00499918
0.00506468
0.00512992
0.00519487
0.0052595
0.00532377
0.0053876
0.00545093
0.00551368
0.00557572