/*--------------------------------*- C++ -*----------------------------------*\
| =========                 |                                                 |
| \\      /  F ield         | OpenFOAM: The Open Source CFD Toolbox           |
|  \\    /   O peration     | Version:  4.1                                   |
|   \\  /    A nd           | Web:      www.OpenFOAM.org                      |
|    \\/     M anipulation  |                                                 |
\*---------------------------------------------------------------------------*/
FoamFile
{
    version     2.0;
    format      ascii;
    class       volScalarField;
    location    "100";
    object      p;
}
// * * * * * * * * * * * * * * * * * * * * * * * * * * * * * * * * * * * * * //

dimensions      [0 2 -2 0 0 0 0];

internalField   nonuniform List<scalar> 
12225
(
-2.6462
-4.8791
-5.9936
-6.30414
-6.48037
-6.66154
-6.81235
-6.92692
-7.02207
-7.10912
-7.19134
-7.27014
-7.34728
-7.42482
-7.50582
-7.59076
-7.69595
-7.77175
-5.83431
-6.66541
-6.8697
-6.77145
-6.74427
-6.81109
-6.89761
-6.97583
-7.04966
-7.12355
-7.19739
-7.27066
-7.34397
-7.4186
-7.49669
-7.58037
-7.67569
-7.79789
-6.23117
-6.15781
-6.27143
-6.36283
-6.47949
-6.62981
-6.77126
-6.88768
-6.98715
-7.07806
-7.16338
-7.24444
-7.32289
-7.40056
-7.47986
-7.56257
-7.65409
-7.75113
-6.10395
-6.00621
-6.27153
-6.47806
-6.60828
-6.73275
-6.84924
-6.94688
-7.03136
-7.11016
-7.18603
-7.25961
-7.3319
-7.40414
-7.47789
-7.55406
-7.6336
-7.70921
-6.09942
-6.11282
-6.36272
-6.53587
-6.63106
-6.72952
-6.83378
-6.92768
-7.0115
-7.09064
-7.16722
-7.24147
-7.31398
-7.38572
-7.45765
-7.52987
-7.60141
-7.66714
-6.16754
-6.21391
-6.3961
-6.5396
-6.63259
-6.72998
-6.83318
-6.9273
-7.01136
-7.0901
-7.16571
-7.23855
-7.30915
-7.37828
-7.44645
-7.51323
-7.57726
-7.63475
-6.23804
-6.28041
-6.41659
-6.54816
-6.64575
-6.7409
-6.83856
-6.92888
-7.01051
-7.08705
-7.16045
-7.23103
-7.29919
-7.36537
-7.42966
-7.4914
-7.54919
-7.60014
-6.29215
-6.32889
-6.44186
-6.5631
-6.65907
-6.74956
-6.84153
-6.92829
-7.00786
-7.08266
-7.15429
-7.22306
-7.28917
-7.35285
-7.41398
-7.47186
-7.52528
-7.57208
-6.33743
-6.37111
-6.46764
-6.57767
-6.67005
-6.75652
-6.84395
-6.92763
-7.00525
-7.07834
-7.14822
-7.21519
-7.27931
-7.34065
-7.39899
-7.45366
-7.50368
-7.54741
-6.38456
-6.41533
-6.49652
-6.59426
-6.68196
-6.76438
-6.84708
-6.92716
-7.00231
-7.07325
-7.141
-7.20581
-7.26762
-7.32637
-7.38177
-7.43326
-7.48009
-7.52107
-6.43275
-6.4601
-6.5278
-6.61342
-6.69535
-6.77325
-6.85089
-6.92683
-6.99898
-7.06734
-7.13256
-7.19483
-7.25405
-7.31001
-7.36239
-7.41076
-7.45463
-7.49322
-6.4808
-6.50448
-6.56078
-6.63494
-6.71005
-6.78283
-6.85523
-6.92663
-6.99528
-7.06063
-7.12292
-7.18231
-7.23866
-7.29169
-7.34107
-7.38646
-7.42764
-7.46408
-6.52734
-6.54748
-6.5943
-6.65797
-6.72561
-6.79278
-6.85986
-6.92643
-6.99112
-7.05305
-7.11211
-7.16832
-7.22161
-7.27163
-7.3181
-7.36071
-7.39943
-7.43398
-6.57073
-6.58769
-6.62672
-6.68113
-6.74123
-6.80251
-6.86424
-6.92586
-6.98624
-7.04445
-7.10007
-7.15298
-7.20304
-7.25008
-7.29375
-7.33387
-7.37035
-7.40325
-6.60894
-6.62321
-6.65598
-6.70254
-6.75557
-6.81102
-6.86752
-6.92424
-6.98022
-7.03458
-7.08673
-7.13631
-7.18321
-7.22731
-7.26841
-7.30626
-7.34086
-7.37222
-6.63937
-6.65151
-6.67944
-6.71971
-6.76665
-6.81674
-6.8684
-6.92061
-6.97243
-7.02308
-7.07187
-7.11833
-7.16228
-7.20369
-7.24246
-7.27835
-7.31133
-7.34142
-6.65855
-6.66914
-6.69362
-6.72933
-6.77159
-6.81736
-6.86505
-6.91353
-6.96185
-7.00926
-7.05512
-7.09891
-7.1404
-7.17956
-7.21636
-7.25062
-7.28227
-7.31135
-6.66138
-6.67118
-6.69392
-6.72726
-6.76704
-6.81036
-6.85572
-6.90192
-6.94809
-6.9934
-7.03735
-7.07934
-7.11925
-7.15691
-7.19246
-7.22559
-7.25637
-7.28476
-6.64812
-6.65785
-6.68048
-6.71373
-6.75338
-6.79647
-6.84135
-6.88706
-6.93262
-6.97737
-7.02058
-7.06194
-7.10113
-7.13826
-7.17315
-7.20587
-7.23615
-7.26437
-6.62368
-6.6338
-6.65748
-6.69247
-6.73401
-6.77851
-6.82441
-6.87089
-6.91715
-6.96232
-7.00586
-7.04732
-7.08666
-7.12376
-7.15868
-7.19123
-7.22153
-7.24966
-6.59147
-6.60211
-6.62775
-6.66622
-6.71122
-6.75825
-6.80615
-6.85451
-6.90235
-6.94869
-6.99304
-7.03519
-7.07509
-7.11266
-7.14787
-7.18066
-7.21112
-7.23952
-6.55401
-6.56459
-6.59298
-6.63728
-6.68717
-6.73707
-6.7874
-6.8384
-6.88856
-6.93663
-6.98222
-7.0254
-7.0661
-7.10436
-7.13997
-7.17316
-7.20381
-7.23248
-6.5136
-6.52238
-6.55393
-6.60691
-6.66328
-6.71643
-6.76956
-6.82343
-6.87597
-6.92587
-6.973
-7.01747
-7.05928
-7.09832
-7.13465
-7.16829
-7.19953
-7.22861
-6.472
-6.47681
-6.51324
-6.57618
-6.63801
-6.69508
-6.75299
-6.81085
-6.8658
-6.91725
-6.96569
-7.01127
-7.05387
-7.09345
-7.13009
-7.16402
-7.1954
-7.22462
-6.42902
-6.42367
-6.47846
-6.55438
-6.61397
-6.67055
-6.73361
-6.79698
-6.85561
-6.90975
-6.96056
-7.00816
-7.05231
-7.093
-7.13044
-7.16496
-7.19686
-7.22676
-6.39106
-6.33647
-6.43674
-6.54845
-6.60793
-6.65826
-6.71943
-6.78237
-6.84053
-6.89462
-6.94593
-6.99433
-7.03935
-7.0809
-7.11917
-7.15451
-7.18718
-7.21744
-6.41182
-6.21563
-6.32949
-6.49142
-6.58837
-6.6635
-6.73839
-6.80705
-6.86716
-6.92162
-6.97235
-7.01944
-7.06271
-7.1023
-7.13842
-7.17169
-7.20261
-7.23227
-6.55154
-6.29986
-6.26927
-6.31876
-6.3935
-6.4924
-6.59515
-6.68623
-6.76576
-6.83771
-6.90357
-6.96329
-7.01709
-7.06526
-7.10834
-7.14715
-7.18257
-7.21595
-6.30811
-6.87723
-6.98644
-6.8557
-6.76972
-6.77226
-6.80851
-6.84796
-6.88853
-6.93202
-6.97676
-7.0205
-7.06206
-7.10079
-7.13636
-7.1689
-7.19893
-7.22813
-3.33494
-4.98074
-5.95412
-6.23663
-6.36308
-6.50221
-6.62861
-6.72638
-6.80588
-6.87634
-6.94003
-6.99704
-7.04789
-7.09314
-7.13324
-7.16849
-7.19919
-7.22424
-8.36133
-8.36042
-8.3596
-8.36065
-8.36358
-8.36769
-8.37253
-8.37764
-8.38263
-8.3873
-8.39185
-8.39646
-8.40147
-8.40698
-8.41312
-8.41994
-8.42771
-8.43655
-8.44668
-8.4582
-8.47139
-8.48634
-8.50332
-8.52238
-8.54375
-8.56745
-8.59366
-8.62227
-8.65337
-8.68672
-8.72228
-8.75968
-8.79877
-8.83908
-8.88036
-8.92211
-8.96406
-9.00571
-9.04683
-9.08693
-9.12587
-9.16324
-9.19896
-9.2327
-9.26445
-9.29392
-9.32117
-9.34597
-9.36839
-9.38824
-9.40564
-9.42044
-9.43273
-9.4424
-9.44955
-9.4541
-9.45614
-9.45559
-9.45256
-9.44696
-9.43891
-9.42836
-9.41543
-9.40009
-9.38246
-9.36253
-9.34042
-9.31615
-9.28981
-9.26147
-9.2312
-9.19909
-9.16522
-9.12968
-9.09251
-9.05384
-9.01369
-8.9722
-8.92935
-8.88531
-8.84
-8.79354
-8.74573
-8.69664
-8.64604
-8.59407
-8.54038
-8.48487
-8.42688
-8.36599
-8.30216
-8.23494
-8.16394
-8.08866
-8.00866
-7.92337
-7.83203
-7.73395
-7.62827
-7.51418
-7.39069
-7.25688
-7.11154
-6.95353
-6.78154
-6.59449
-6.39113
-6.17064
-5.93192
-5.67427
-5.39673
-5.09869
-4.77926
-4.43804
-4.07441
-3.68817
-3.27894
-2.84684
-2.39182
-1.91433
-1.41487
-0.894469
-0.354195
0.20443
0.779812
1.36996
1.97278
2.58581
3.20649
3.83199
4.4594
5.08572
5.70801
6.32334
6.92882
7.52168
8.0993
8.65933
9.19967
9.71847
10.2141
10.6854
11.1314
11.5518
11.9466
12.3162
12.6611
12.9824
13.281
13.5574
13.8118
14.0451
14.2584
14.4529
14.6297
14.7901
14.9352
15.0662
15.1844
15.2906
15.3861
15.4717
15.5483
15.6168
15.6779
15.7324
15.7809
15.8242
15.8629
15.8976
15.929
15.9578
15.985
16.0117
16.0396
16.0713
16.1132
16.1725
16.2764
16.4133
-8.36427
-8.36281
-8.36222
-8.36467
-8.36835
-8.3718
-8.37477
-8.3773
-8.37943
-8.38118
-8.38274
-8.3843
-8.38613
-8.38846
-8.39166
-8.39584
-8.40107
-8.40736
-8.41489
-8.42378
-8.43428
-8.44659
-8.46099
-8.47764
-8.49681
-8.51856
-8.54306
-8.57032
-8.60037
-8.63306
-8.66825
-8.70563
-8.74493
-8.78572
-8.82763
-8.87015
-8.91291
-8.95542
-8.99735
-9.03825
-9.0779
-9.11594
-9.15223
-9.18652
-9.21871
-9.24863
-9.27624
-9.3014
-9.32413
-9.34431
-9.36199
-9.37707
-9.38961
-9.39954
-9.40692
-9.41169
-9.41391
-9.41353
-9.41062
-9.40515
-9.39717
-9.38668
-9.37374
-9.35837
-9.34065
-9.3206
-9.2983
-9.2738
-9.24718
-9.21852
-9.18789
-9.15539
-9.12109
-9.08509
-9.04746
-9.0083
-8.96767
-8.92567
-8.88236
-8.83783
-8.7921
-8.74524
-8.69719
-8.64797
-8.59745
-8.54567
-8.49245
-8.43758
-8.38053
-8.32111
-8.25907
-8.194
-8.12546
-8.05287
-7.97572
-7.89325
-7.80496
-7.70995
-7.60751
-7.49664
-7.37651
-7.24598
-7.1041
-6.94967
-6.78161
-6.59878
-6.40036
-6.18524
-5.95251
-5.70108
-5.43017
-5.13891
-4.82664
-4.4927
-4.13659
-3.75786
-3.35632
-2.93183
-2.48453
-2.0147
-1.52289
-1.00997
-0.476981
0.0747202
0.643569
1.22771
1.82508
2.43335
3.04998
3.67222
4.29719
4.92195
5.54352
6.15895
6.76535
7.35987
7.93986
8.50288
9.04675
9.56955
10.0696
10.5456
10.9967
11.4223
11.8224
12.1971
12.5469
12.8723
13.1746
13.4547
13.7131
13.9506
14.1682
14.367
14.5482
14.7128
14.8621
14.9972
15.1193
15.2294
15.3285
15.4175
15.4974
15.569
15.633
15.6903
15.7415
15.7873
15.8283
15.8653
15.8988
15.9297
15.9588
15.9873
16.0171
16.0506
16.0927
16.1483
16.2414
16.3553
-8.36144
-8.3606
-8.36053
-8.36302
-8.36628
-8.36873
-8.37005
-8.37041
-8.37004
-8.36907
-8.3678
-8.36655
-8.3657
-8.36551
-8.3662
-8.36785
-8.37058
-8.37452
-8.37988
-8.3869
-8.39589
-8.40706
-8.4207
-8.43694
-8.45602
-8.47801
-8.50302
-8.53093
-8.56166
-8.59495
-8.63056
-8.66811
-8.70727
-8.7476
-8.78876
-8.83032
-8.87195
-8.91326
-8.95394
-8.99366
-9.03219
-9.06924
-9.10465
-9.1382
-9.16978
-9.19923
-9.22647
-9.25138
-9.27393
-9.29403
-9.31167
-9.32679
-9.33939
-9.34942
-9.3569
-9.3618
-9.36415
-9.36391
-9.36111
-9.35575
-9.34786
-9.33744
-9.32454
-9.30919
-9.29143
-9.27132
-9.24891
-9.22427
-9.19747
-9.16858
-9.13771
-9.10493
-9.07033
-9.03403
-8.99609
-8.95663
-8.91572
-8.87346
-8.82992
-8.78517
-8.73927
-8.69229
-8.64421
-8.59506
-8.54479
-8.49338
-8.44075
-8.38663
-8.33071
-8.27269
-8.21247
-8.14961
-8.08363
-8.014
-7.94019
-7.86145
-7.77717
-7.68645
-7.58858
-7.4825
-7.36741
-7.2421
-7.10564
-6.95679
-6.79467
-6.61814
-6.42642
-6.21829
-5.9929
-5.74913
-5.4862
-5.20309
-4.89923
-4.57379
-4.22636
-3.85639
-3.46375
-3.04814
-2.60975
-2.1488
-1.66592
-1.16181
-0.637488
-0.0941521
0.466672
1.04326
1.63357
2.2354
2.84627
3.46351
4.0843
4.70572
5.32483
5.93868
6.54436
7.139
7.71994
8.28467
8.83103
9.35702
9.86104
10.3418
10.7984
11.2303
11.6373
12.0195
12.3772
12.711
13.0217
13.31
13.5763
13.8217
14.0468
14.2529
14.441
14.6123
14.768
14.9091
15.0368
15.1522
15.2563
15.35
15.4343
15.5099
15.5778
15.6386
15.6932
15.7421
15.786
15.8257
15.8618
15.895
15.9264
15.9571
15.9887
16.0235
16.0656
16.1176
16.197
16.2758
-8.35114
-8.35295
-8.35509
-8.35829
-8.36143
-8.36349
-8.36431
-8.36408
-8.36305
-8.3614
-8.35939
-8.35728
-8.3554
-8.35402
-8.35342
-8.35383
-8.35551
-8.35868
-8.36361
-8.3705
-8.37959
-8.39105
-8.40508
-8.42178
-8.44127
-8.46353
-8.48862
-8.51641
-8.54681
-8.57958
-8.6145
-8.65122
-8.68945
-8.72878
-8.7689
-8.8094
-8.84996
-8.8902
-8.92984
-8.96855
-9.0061
-9.04223
-9.07677
-9.10952
-9.14035
-9.16911
-9.19573
-9.22008
-9.24212
-9.26177
-9.279
-9.29375
-9.30602
-9.31575
-9.32296
-9.3276
-9.3297
-9.32923
-9.3262
-9.32061
-9.31248
-9.30183
-9.28867
-9.27306
-9.25502
-9.23461
-9.21189
-9.18691
-9.15977
-9.13053
-9.0993
-9.06616
-9.03123
-8.99461
-8.9564
-8.9167
-8.87563
-8.83326
-8.7897
-8.74501
-8.69927
-8.65252
-8.60479
-8.5561
-8.50643
-8.45576
-8.40399
-8.35093
-8.29621
-8.23977
-8.18129
-8.12044
-8.05674
-7.98972
-7.91876
-7.84323
-7.76236
-7.67542
-7.5815
-7.47974
-7.36909
-7.24854
-7.11696
-6.97333
-6.8166
-6.64582
-6.45995
-6.25795
-6.03878
-5.80145
-5.54502
-5.26862
-4.97152
-4.65296
-4.31237
-3.94931
-3.56351
-3.15474
-2.72308
-2.26881
-1.79254
-1.29492
-0.776932
-0.239705
0.315295
0.886391
1.47162
2.0688
2.67552
3.28915
3.90692
4.52592
5.14324
5.75589
6.36098
6.95561
7.53712
8.103
8.65109
9.17941
9.68642
10.1709
10.6319
11.0688
11.4815
11.8698
12.2339
12.5744
12.8917
13.1864
13.4591
13.7107
13.9419
14.1539
14.3477
14.5245
14.6854
14.8316
14.964
15.0839
15.1922
15.2899
15.3778
15.457
15.5281
15.5919
15.6493
15.7008
15.7472
15.7892
15.8274
15.8626
15.8956
15.9277
15.9603
15.9952
16.0357
16.0822
16.1463
16.1942
-8.33266
-8.33741
-8.34338
-8.34893
-8.35327
-8.35605
-8.35734
-8.3574
-8.35654
-8.35496
-8.35297
-8.35083
-8.34889
-8.34742
-8.34677
-8.34721
-8.34905
-8.35252
-8.35788
-8.36531
-8.37504
-8.38721
-8.40199
-8.41944
-8.43967
-8.46262
-8.48827
-8.51648
-8.5471
-8.57986
-8.61455
-8.65081
-8.68839
-8.7269
-8.76604
-8.80544
-8.84481
-8.8838
-8.92217
-8.95962
-8.99593
-9.03087
-9.06427
-9.09594
-9.12577
-9.15359
-9.17933
-9.20287
-9.22416
-9.24312
-9.2597
-9.27384
-9.28553
-9.29472
-9.30139
-9.30552
-9.3071
-9.30612
-9.30258
-9.29647
-9.28782
-9.27663
-9.26293
-9.24675
-9.22813
-9.20713
-9.1838
-9.15821
-9.13045
-9.10061
-9.06878
-9.03507
-8.99961
-8.96251
-8.92388
-8.88386
-8.84255
-8.80007
-8.75652
-8.71199
-8.66656
-8.62028
-8.57319
-8.52532
-8.47665
-8.42714
-8.37674
-8.32521
-8.27235
-8.21783
-8.16164
-8.10326
-8.04226
-7.97819
-7.91037
-7.83826
-7.76098
-7.67794
-7.58809
-7.4907
-7.38455
-7.26879
-7.14212
-7.0037
-6.85224
-6.68694
-6.50649
-6.31008
-6.09643
-5.86479
-5.61394
-5.34323
-5.05166
-4.7387
-4.4035
-4.0458
-3.6651
-3.26138
-2.83451
-2.38492
-1.91302
-1.4196
-0.905468
-0.371854
0.179903
0.748086
1.33081
1.92589
2.53093
3.14332
3.76028
4.37893
4.9963
5.60943
6.21533
6.81118
7.39422
7.96205
8.51242
9.04348
9.55358
10.0416
10.5064
10.9475
11.3645
11.7573
12.1261
12.4712
12.793
13.0923
13.3694
13.6253
13.8609
14.0771
14.275
14.4558
14.6206
14.7704
14.9065
15.0297
15.1412
15.2419
15.3328
15.4145
15.4881
15.5542
15.6137
15.6672
15.7154
15.759
15.7987
15.8351
15.8692
15.9019
15.9345
15.9683
16.0057
16.0456
16.0956
16.119
-8.30838
-8.31604
-8.32697
-8.33574
-8.34197
-8.34617
-8.34861
-8.34961
-8.34955
-8.34869
-8.34736
-8.34584
-8.34449
-8.34364
-8.34364
-8.34479
-8.34742
-8.35177
-8.3581
-8.36659
-8.37745
-8.39077
-8.40669
-8.42523
-8.44643
-8.47022
-8.49655
-8.52522
-8.55608
-8.58884
-8.62329
-8.65909
-8.69599
-8.73364
-8.77178
-8.81006
-8.84824
-8.88599
-8.9231
-8.95928
-8.99436
-9.02809
-9.06033
-9.09088
-9.11965
-9.14647
-9.17126
-9.19391
-9.21436
-9.23252
-9.24834
-9.26175
-9.27273
-9.28122
-9.28721
-9.29066
-9.29155
-9.28987
-9.28562
-9.27879
-9.26939
-9.25744
-9.24295
-9.22596
-9.20651
-9.18466
-9.16047
-9.13403
-9.10541
-9.07472
-9.04207
-9.00759
-8.97139
-8.93362
-8.89442
-8.85392
-8.81226
-8.76958
-8.72598
-8.68159
-8.63649
-8.59074
-8.54442
-8.49754
-8.4501
-8.40207
-8.35339
-8.30385
-8.25313
-8.20123
-8.14776
-8.09239
-8.03467
-7.97404
-7.90996
-7.84169
-7.76859
-7.6898
-7.60453
-7.51176
-7.41057
-7.29981
-7.17844
-7.0453
-6.89935
-6.73944
-6.56452
-6.37349
-6.16535
-5.93907
-5.69363
-5.42811
-5.14168
-4.83361
-4.50323
-4.15006
-3.77374
-3.3741
-2.95111
-2.50508
-2.03643
-1.54588
-1.03428
-0.502791
0.047229
0.614106
1.19595
1.79058
2.39559
3.00835
3.62609
4.2459
4.86478
5.47972
6.08774
6.68599
7.27173
7.84254
8.39619
8.93075
9.44456
9.93638
10.4052
10.8503
11.2713
11.668
12.0407
12.3896
12.7151
13.0178
13.2984
13.5577
13.7965
14.0159
14.2169
14.4007
14.5685
14.7212
14.86
14.9859
15.0999
15.2031
15.2962
15.3801
15.4557
15.5236
15.5847
15.6397
15.6893
15.7341
15.7748
15.812
15.8466
15.8793
15.9111
15.9431
15.9766
16.0095
16.0471
16.0509
-8.28203
-8.29239
-8.30847
-8.32061
-8.329
-8.33499
-8.33901
-8.34137
-8.34253
-8.34283
-8.34263
-8.34224
-8.34203
-8.34233
-8.34352
-8.34588
-8.34976
-8.35539
-8.36303
-8.37286
-8.38504
-8.39966
-8.4168
-8.43644
-8.4586
-8.48316
-8.51004
-8.53904
-8.57001
-8.60266
-8.6368
-8.67212
-8.70836
-8.74522
-8.78245
-8.81973
-8.85683
-8.89346
-8.92941
-8.96443
-8.99835
-9.03094
-9.06207
-9.09155
-9.11928
-9.1451
-9.16894
-9.19068
-9.21024
-9.22755
-9.24254
-9.25514
-9.26532
-9.27302
-9.27821
-9.28084
-9.28091
-9.27839
-9.27326
-9.26552
-9.25519
-9.24226
-9.22677
-9.20875
-9.18825
-9.16532
-9.14005
-9.11251
-9.0828
-9.05105
-9.01737
-8.98191
-8.9448
-8.90621
-8.86628
-8.82519
-8.78308
-8.74011
-8.69641
-8.65212
-8.60735
-8.56219
-8.5167
-8.47092
-8.42486
-8.37849
-8.33175
-8.28443
-8.23633
-8.1872
-8.13694
-8.08501
-8.031
-7.97427
-7.91436
-7.85042
-7.78191
-7.70783
-7.62752
-7.53979
-7.44388
-7.33844
-7.22259
-7.09487
-6.95447
-6.80002
-6.63069
-6.44507
-6.24238
-6.0213
-5.78106
-5.52044
-5.23884
-4.93526
-4.60927
-4.26012
-3.88765
-3.49148
-3.07175
-2.62854
-2.16242
-1.67391
-1.16398
-0.633674
-0.0844391
0.482136
1.0641
1.6593
2.26529
2.87943
3.49891
4.1208
4.74209
5.35971
5.97071
6.57216
7.16142
7.73592
8.29347
8.83199
9.34991
9.84578
10.3187
10.7677
11.1926
11.5932
11.9694
12.3217
12.6505
12.9562
13.2397
13.5018
13.7433
13.9653
14.1689
14.3552
14.5252
14.6803
14.8213
14.9493
15.0655
15.1706
15.2656
15.3514
15.4286
15.4981
15.5606
15.6169
15.6675
15.7132
15.7545
15.7922
15.8268
15.859
15.8897
15.9192
15.9484
15.9744
16.0013
15.9893
-8.25726
-8.26976
-8.29037
-8.30556
-8.316
-8.32384
-8.32956
-8.33346
-8.33606
-8.33774
-8.33893
-8.33993
-8.34114
-8.34287
-8.3455
-8.34932
-8.35465
-8.36171
-8.37077
-8.38195
-8.39543
-8.41126
-8.4295
-8.45011
-8.47309
-8.49829
-8.52562
-8.55487
-8.5859
-8.61843
-8.65227
-8.68712
-8.72276
-8.75889
-8.79529
-8.83166
-8.86779
-8.90341
-8.93833
-8.9723
-9.00517
-9.03673
-9.06685
-9.09535
-9.12212
-9.14702
-9.16996
-9.19082
-9.20953
-9.22599
-9.24015
-9.25193
-9.26127
-9.26813
-9.27245
-9.2742
-9.27334
-9.26985
-9.26372
-9.25494
-9.2435
-9.22943
-9.21275
-9.1935
-9.17173
-9.14751
-9.12092
-9.09207
-9.06107
-9.02803
-8.99312
-8.95649
-8.9183
-8.87873
-8.83795
-8.79615
-8.75351
-8.71021
-8.66639
-8.62222
-8.57782
-8.5333
-8.48875
-8.44421
-8.39969
-8.35518
-8.31063
-8.26583
-8.22051
-8.17465
-8.12786
-8.07975
-8.02976
-7.9774
-7.92197
-7.86287
-7.79927
-7.73042
-7.65535
-7.57316
-7.48273
-7.38299
-7.27268
-7.15066
-7.01579
-6.86704
-6.70321
-6.52315
-6.32572
-6.10985
-5.87449
-5.61867
-5.3415
-5.04219
-4.72009
-4.37463
-4.00545
-3.6123
-3.19518
-2.75424
-2.28992
-1.8028
-1.29378
-0.76394
-0.214695
0.352337
0.93521
1.53173
2.13943
2.75566
3.37758
4.00223
4.62656
5.24751
5.8621
6.46739
7.06066
7.63931
8.20106
8.74383
9.26597
9.76601
10.2429
10.6959
11.1246
11.5287
11.9083
12.2638
12.5954
12.9039
13.1899
13.4544
13.6982
13.9225
14.1282
14.3165
14.4886
14.6455
14.7884
14.9182
15.0361
15.1429
15.2395
15.3268
15.4055
15.4763
15.5401
15.5974
15.649
15.6953
15.7371
15.7749
15.8093
15.8408
15.8698
15.8967
15.9215
15.9408
15.9584
15.9337
-8.23666
-8.25066
-8.27473
-8.29232
-8.30448
-8.31394
-8.32124
-8.32663
-8.33065
-8.33375
-8.33637
-8.33883
-8.34152
-8.34475
-8.34888
-8.35417
-8.36094
-8.36941
-8.37979
-8.39223
-8.40686
-8.42373
-8.44289
-8.46428
-8.48788
-8.51354
-8.54117
-8.57057
-8.60157
-8.63392
-8.66744
-8.70185
-8.73693
-8.77241
-8.80807
-8.84364
-8.87893
-8.91367
-8.94769
-8.98076
-9.01274
-9.04341
-9.07266
-9.1003
-9.12624
-9.15032
-9.17246
-9.19253
-9.21046
-9.22614
-9.23951
-9.25048
-9.259
-9.26499
-9.26842
-9.26923
-9.26738
-9.26284
-9.25559
-9.24563
-9.23295
-9.21757
-9.19952
-9.17885
-9.15561
-9.12989
-9.10178
-9.07139
-9.03886
-9.00434
-8.96799
-8.92999
-8.89054
-8.84983
-8.80807
-8.76547
-8.72222
-8.67853
-8.63459
-8.59055
-8.54658
-8.5028
-8.4593
-8.41614
-8.37336
-8.33093
-8.2888
-8.24677
-8.20466
-8.16225
-8.11931
-8.07535
-8.02975
-7.98208
-7.93155
-7.87764
-7.81938
-7.75613
-7.68673
-7.61039
-7.52575
-7.43188
-7.32732
-7.21119
-7.0821
-6.93918
-6.78092
-6.60641
-6.4142
-6.20347
-5.97286
-5.72166
-5.44869
-5.15339
-4.83484
-4.49271
-4.12637
-3.73579
-3.32075
-2.88154
-2.41842
-1.9321
-1.42335
-0.893374
-0.343486
0.224603
0.808975
1.40738
2.01736
2.63622
3.2611
3.88906
4.517
5.14185
5.76053
6.37013
6.96777
7.55088
8.11702
8.6642
9.19059
9.69482
10.1757
10.6325
11.0648
11.4723
11.855
12.2134
12.5477
12.8586
13.1469
13.4135
13.6594
13.8856
14.0931
14.2832
14.457
14.6156
14.76
14.8914
15.0107
15.1188
15.2168
15.3054
15.3853
15.4574
15.5222
15.5805
15.6328
15.6798
15.7219
15.7597
15.7936
15.8241
15.8514
15.8753
15.8958
15.9089
15.9184
15.8835
-8.22189
-8.23679
-8.26291
-8.28206
-8.29542
-8.30611
-8.31467
-8.32132
-8.3266
-8.33099
-8.33493
-8.33876
-8.34284
-8.34747
-8.35299
-8.35965
-8.36774
-8.37745
-8.38899
-8.40249
-8.41807
-8.43576
-8.45561
-8.47756
-8.50157
-8.52751
-8.55527
-8.58466
-8.61554
-8.64765
-8.68081
-8.71477
-8.74933
-8.78421
-8.81922
-8.8541
-8.88867
-8.92268
-8.95596
-8.9883
-9.01954
-9.04949
-9.07802
-9.10496
-9.13021
-9.15361
-9.17507
-9.19447
-9.21171
-9.22669
-9.23933
-9.24955
-9.25726
-9.26241
-9.26493
-9.26475
-9.26185
-9.25618
-9.24772
-9.23645
-9.22239
-9.20554
-9.18594
-9.16365
-9.13874
-9.1113
-9.08143
-9.04929
-9.01501
-8.97878
-8.94078
-8.90123
-8.86033
-8.81833
-8.77544
-8.73192
-8.68799
-8.64388
-8.59978
-8.55591
-8.51242
-8.46946
-8.42715
-8.38555
-8.34469
-8.30457
-8.26512
-8.22616
-8.18746
-8.1489
-8.11012
-8.07058
-8.02978
-7.98707
-7.94189
-7.89344
-7.841
-7.78358
-7.72028
-7.64994
-7.57146
-7.48357
-7.38515
-7.275
-7.15198
-7.01483
-6.86233
-6.69322
-6.50634
-6.30053
-6.07469
-5.82782
-5.55896
-5.26731
-4.95213
-4.6129
-4.24914
-3.86066
-3.44734
-3.00936
-2.54706
-2.06107
-1.55222
-1.02166
-0.470757
0.0987864
0.685009
1.28567
1.89831
2.52023
3.14856
3.78033
4.41239
5.0416
5.66483
6.27908
6.88141
7.46916
8.03989
8.59152
9.12222
9.63054
10.1153
10.5758
11.0115
11.4222
11.8078
12.1688
12.5055
12.8187
13.1091
13.3776
13.6252
13.8531
14.0623
14.2539
14.4292
14.5892
14.735
14.8677
14.9883
15.0977
15.1968
15.2865
15.3675
15.4406
15.5064
15.5655
15.6186
15.666
15.7083
15.746
15.7794
15.8087
15.8341
15.8551
15.8714
15.8788
15.8814
15.8382
-8.21375
-8.22892
-8.25552
-8.27528
-8.28928
-8.3007
-8.3101
-8.31767
-8.32393
-8.32937
-8.33442
-8.33941
-8.34469
-8.35052
-8.35723
-8.36504
-8.37423
-8.38496
-8.39743
-8.41174
-8.42803
-8.4463
-8.4666
-8.48888
-8.51309
-8.53911
-8.56685
-8.59611
-8.62675
-8.65855
-8.69133
-8.72483
-8.75889
-8.79323
-8.82768
-8.86198
-8.89596
-8.92938
-8.96208
-8.99383
-9.02451
-9.0539
-9.08189
-9.1083
-9.13301
-9.15588
-9.17681
-9.19565
-9.21231
-9.22668
-9.23867
-9.24817
-9.25512
-9.25941
-9.261
-9.25981
-9.25579
-9.2489
-9.23911
-9.2264
-9.21079
-9.1923
-9.17096
-9.14685
-9.12004
-9.09064
-9.0588
-9.02466
-8.9884
-8.95023
-8.91037
-8.86906
-8.82654
-8.78308
-8.73894
-8.6944
-8.64971
-8.60513
-8.56089
-8.5172
-8.47426
-8.43224
-8.39124
-8.35136
-8.31263
-8.27505
-8.23854
-8.20292
-8.16799
-8.13349
-8.0992
-8.06442
-8.0287
-7.99131
-7.95177
-7.90913
-7.86276
-7.81149
-7.7545
-7.6904
-7.61825
-7.53658
-7.44447
-7.34043
-7.22351
-7.09215
-6.94538
-6.78163
-6.59998
-6.39896
-6.17775
-5.93502
-5.6701
-5.38188
-5.06989
-4.73331
-4.37192
-3.98527
-3.57346
-3.13646
-2.67479
-2.18893
-1.67984
-1.14854
-0.596454
-0.0252386
0.563113
1.16638
1.78209
2.40751
3.03977
3.67577
4.31236
4.94626
5.57435
6.19345
6.80066
7.39315
7.96854
8.52459
9.05955
9.57187
10.0604
10.5244
10.9633
11.377
11.7653
12.1287
12.4677
12.7829
13.0751
13.3453
13.5946
13.824
14.0346
14.2276
14.4042
14.5655
14.7125
14.8464
14.9682
15.0787
15.1789
15.2696
15.3516
15.4256
15.4922
15.5521
15.6057
15.6535
15.696
15.7334
15.7662
15.7943
15.8178
15.836
15.8484
15.8506
15.8471
15.7972
-8.21211
-8.22692
-8.25256
-8.27203
-8.28612
-8.29773
-8.3075
-8.31558
-8.32249
-8.32866
-8.33453
-8.34039
-8.34658
-8.35334
-8.36098
-8.36968
-8.3797
-8.39118
-8.40432
-8.4192
-8.43593
-8.45453
-8.47506
-8.49744
-8.52166
-8.54759
-8.57515
-8.60415
-8.63446
-8.66588
-8.69824
-8.73129
-8.76488
-8.79874
-8.8327
-8.86652
-8.90003
-8.933
-8.96526
-8.9966
-9.02688
-9.05589
-9.0835
-9.10954
-9.13389
-9.15637
-9.1769
-9.1953
-9.21149
-9.22533
-9.23673
-9.24556
-9.25175
-9.2552
-9.25583
-9.25357
-9.24834
-9.24011
-9.22885
-9.21455
-9.19722
-9.17688
-9.15359
-9.12741
-9.09847
-9.06688
-9.03279
-8.99641
-8.95792
-8.91758
-8.87563
-8.83235
-8.78803
-8.74296
-8.69745
-8.6518
-8.60629
-8.56122
-8.51684
-8.47339
-8.43109
-8.39011
-8.35059
-8.31261
-8.27622
-8.2414
-8.2081
-8.17611
-8.14514
-8.11512
-8.08552
-8.05585
-8.02542
-7.99372
-7.95999
-7.92352
-7.88333
-7.83851
-7.78787
-7.73031
-7.66451
-7.58931
-7.50343
-7.40567
-7.29468
-7.16923
-7.02796
-6.86963
-6.69297
-6.49678
-6.27994
-6.04141
-5.78025
-5.49556
-5.18661
-4.85278
-4.49366
-4.10893
-3.69854
-3.26259
-2.80146
-2.3157
-1.80618
-1.27394
-0.720391
-0.147202
0.443649
1.04992
1.66909
2.2984
2.93491
3.57548
4.21685
4.85567
5.48875
6.11284
6.72496
7.32224
7.90222
8.46266
9.00175
9.51793
10.0101
10.4774
10.9193
11.3356
11.7265
12.0921
12.4331
12.75
13.0439
13.3157
13.5664
13.7972
14.0091
14.2034
14.3812
14.5437
14.6919
14.8269
14.9497
15.0613
15.1624
15.2541
15.337
15.4119
15.4793
15.5399
15.594
15.6421
15.6846
15.7218
15.7538
15.7808
15.8024
15.8179
15.8265
15.8241
15.8153
15.76
-8.21619
-8.23007
-8.25369
-8.27212
-8.28572
-8.29701
-8.30665
-8.31482
-8.32198
-8.32852
-8.33486
-8.34126
-8.34805
-8.35543
-8.36368
-8.37298
-8.38354
-8.3955
-8.40903
-8.4242
-8.44113
-8.45983
-8.48035
-8.50263
-8.52667
-8.55234
-8.57958
-8.60821
-8.63812
-8.6691
-8.70102
-8.73364
-8.7668
-8.80024
-8.8338
-8.86724
-8.90039
-8.93303
-8.96499
-8.99606
-9.02609
-9.05486
-9.08225
-9.10807
-9.13218
-9.15442
-9.17466
-9.19274
-9.20854
-9.22193
-9.23278
-9.24097
-9.2464
-9.24897
-9.24858
-9.24514
-9.2386
-9.22889
-9.21599
-9.1999
-9.18063
-9.1582
-9.1327
-9.10419
-9.07282
-9.03874
-9.00213
-8.96319
-8.92219
-8.87939
-8.83509
-8.7896
-8.74326
-8.6964
-8.64936
-8.60247
-8.55607
-8.51047
-8.46595
-8.42278
-8.38119
-8.34137
-8.30347
-8.26758
-8.23374
-8.20193
-8.17208
-8.14396
-8.11733
-8.09198
-8.06742
-8.04311
-8.01829
-7.99254
-7.96493
-7.93484
-7.9011
-7.86291
-7.81887
-7.76798
-7.70873
-7.64011
-7.56058
-7.46913
-7.36415
-7.24462
-7.10892
-6.95603
-6.78441
-6.59313
-6.38077
-6.14652
-5.88916
-5.60802
-5.30211
-4.97104
-4.61414
-4.2313
-3.82223
-3.3872
-2.92641
-2.44053
-1.9303
-1.39684
-0.841532
-0.266073
0.327578
0.937142
1.56005
2.19352
2.83449
3.47981
4.12604
4.76986
5.40789
6.03695
6.65386
7.25584
7.84025
8.40494
8.94795
9.46782
9.96333
10.4337
10.8784
11.2972
11.6903
12.058
12.4007
12.7194
13.0148
13.288
13.54
13.772
13.9852
14.1806
14.3596
14.5232
14.6725
14.8085
14.9324
15.0449
15.1471
15.2397
15.3235
15.3992
15.4674
15.5285
15.5831
15.6315
15.674
15.7109
15.7422
15.7679
15.7877
15.8007
15.806
15.7994
15.786
15.7264
-8.22489
-8.23741
-8.25834
-8.27512
-8.28771
-8.29819
-8.30724
-8.31506
-8.32206
-8.32859
-8.33502
-8.34161
-8.34864
-8.3563
-8.36483
-8.3744
-8.3852
-8.39733
-8.41097
-8.42617
-8.44305
-8.46161
-8.4819
-8.50389
-8.52758
-8.55285
-8.57966
-8.60784
-8.63729
-8.66781
-8.69926
-8.73142
-8.76414
-8.79717
-8.83038
-8.86352
-8.89641
-8.92883
-8.96061
-8.99153
-9.02144
-9.05012
-9.07741
-9.10313
-9.12713
-9.14921
-9.16926
-9.18708
-9.20254
-9.21549
-9.22579
-9.23329
-9.23789
-9.23944
-9.23787
-9.23308
-9.22501
-9.2136
-9.19881
-9.18066
-9.15914
-9.1343
-9.10622
-9.07502
-9.04084
-9.00387
-8.96433
-8.92247
-8.87858
-8.83298
-8.78601
-8.73802
-8.6894
-8.64053
-8.59179
-8.54356
-8.49619
-8.45003
-8.4054
-8.36258
-8.32183
-8.28334
-8.24727
-8.21371
-8.18271
-8.15423
-8.12818
-8.10431
-8.08239
-8.06209
-8.04301
-8.02438
-8.00567
-7.98615
-7.96514
-7.94166
-7.91483
-7.88346
-7.84642
-7.80234
-7.74999
-7.68799
-7.6151
-7.52994
-7.43122
-7.31756
-7.18764
-7.04011
-6.87372
-6.68721
-6.47943
-6.24929
-5.99577
-5.71798
-5.41513
-5.08659
-4.73187
-4.35067
-3.94281
-3.50843
-3.0478
-2.56151
-2.05033
-1.51538
-0.958064
-0.38007
0.216611
0.829655
1.45645
2.09414
2.73963
3.38963
4.04069
4.68938
5.33227
5.96608
6.58761
7.194
7.78262
8.35122
8.89788
9.42108
9.91964
10.3928
10.84
11.261
11.6561
12.0255
12.3699
12.6901
12.9868
13.2613
13.5145
13.7477
13.962
14.1586
14.3387
14.5034
14.6537
14.7909
14.9157
15.0293
15.1325
15.226
15.3107
15.3872
15.4561
15.5178
15.5728
15.6214
15.6639
15.7005
15.7311
15.7557
15.7737
15.7843
15.7866
15.7764
15.7589
15.6959
-8.23705
-8.24795
-8.26583
-8.28052
-8.29164
-8.30088
-8.30891
-8.31596
-8.32238
-8.32848
-8.33462
-8.341
-8.3479
-8.35547
-8.36393
-8.37342
-8.38411
-8.39609
-8.40953
-8.42446
-8.44101
-8.45918
-8.47904
-8.50054
-8.5237
-8.54842
-8.57465
-8.60223
-8.6311
-8.66106
-8.69198
-8.72365
-8.75593
-8.7886
-8.8215
-8.85437
-8.88707
-8.91934
-8.95102
-8.98189
-9.01176
-9.04042
-9.0677
-9.09339
-9.11732
-9.1393
-9.15917
-9.17672
-9.19182
-9.20427
-9.21393
-9.22063
-9.22425
-9.22463
-9.22168
-9.2153
-9.20542
-9.19198
-9.17495
-9.15432
-9.13012
-9.10242
-9.07133
-9.03698
-8.99955
-8.95926
-8.91636
-8.87116
-8.82399
-8.77523
-8.72527
-8.67452
-8.6234
-8.57236
-8.52182
-8.47218
-8.42386
-8.37722
-8.33261
-8.29034
-8.25066
-8.2138
-8.17989
-8.14906
-8.1213
-8.09659
-8.07479
-8.05568
-8.03891
-8.02416
-8.01099
-7.99857
-7.98637
-7.97356
-7.9595
-7.94305
-7.92342
-7.8992
-7.86939
-7.83236
-7.78704
-7.7318
-7.6656
-7.58679
-7.49434
-7.38657
-7.26241
-7.12022
-6.95899
-6.77719
-6.5739
-6.34774
-6.09795
-5.82335
-5.52338
-5.19717
-4.84442
-4.46462
-4.05776
-3.62376
-3.16305
-2.67608
-2.16375
-1.6271
-1.06763
-0.486999
0.11275
0.729267
1.35992
2.00177
2.65168
3.30619
3.96189
4.6152
5.26269
5.90087
6.52664
7.13699
7.72937
8.3014
8.85125
9.37733
9.87854
10.354
10.8033
11.2263
11.6231
11.994
12.3398
12.6613
12.9593
13.235
13.4894
13.7237
13.9391
14.1368
14.318
14.4838
14.6352
14.7734
14.8994
15.014
15.1182
15.2127
15.2983
15.3756
15.4452
15.5075
15.5629
15.6118
15.6543
15.6905
15.7205
15.744
15.7604
15.7689
15.7683
15.755
15.734
15.6683
-8.25163
-8.26084
-8.2756
-8.28792
-8.29722
-8.30482
-8.31142
-8.31727
-8.32269
-8.32796
-8.33338
-8.33914
-8.34549
-8.35255
-8.36052
-8.36951
-8.37967
-8.3911
-8.40393
-8.41822
-8.43408
-8.45151
-8.4706
-8.49132
-8.51367
-8.53758
-8.563
-8.58981
-8.61795
-8.64723
-8.67755
-8.7087
-8.74054
-8.77284
-8.80543
-8.83808
-8.87062
-8.90279
-8.93442
-8.96526
-8.99514
-9.02381
-9.05109
-9.07674
-9.10059
-9.12242
-9.14205
-9.15925
-9.17386
-9.18567
-9.19453
-9.20022
-9.20264
-9.20159
-9.19699
-9.1887
-9.17667
-9.16083
-9.14116
-9.11766
-9.09038
-9.0594
-9.02486
-8.9869
-8.94576
-8.90169
-8.85502
-8.80609
-8.75533
-8.70312
-8.64994
-8.59624
-8.54252
-8.48926
-8.43693
-8.38598
-8.33686
-8.28995
-8.24564
-8.20424
-8.16603
-8.13121
-8.09995
-8.07232
-8.04834
-8.02793
-8.01096
-7.99711
-7.986
-7.97739
-7.97056
-7.9649
-7.95958
-7.95397
-7.94711
-7.93812
-7.92582
-7.90911
-7.88654
-7.85679
-7.81838
-7.77001
-7.71029
-7.63792
-7.55149
-7.44964
-7.33094
-7.19406
-7.03766
-6.8605
-6.66135
-6.43909
-6.19266
-5.92111
-5.62367
-5.29961
-4.94848
-4.56988
-4.16369
-3.72993
-3.26894
-2.78125
-2.26769
-1.72939