/*--------------------------------*- C++ -*----------------------------------*\
| =========                 |                                                 |
| \\      /  F ield         | OpenFOAM: The Open Source CFD Toolbox           |
|  \\    /   O peration     | Version:  4.1                                   |
|   \\  /    A nd           | Web:      www.OpenFOAM.org                      |
|    \\/     M anipulation  |                                                 |
\*---------------------------------------------------------------------------*/
FoamFile
{
    version     2.0;
    format      ascii;
    class       surfaceScalarField;
    location    "100";
    object      phi;
}
// * * * * * * * * * * * * * * * * * * * * * * * * * * * * * * * * * * * * * //

dimensions      [0 3 -1 0 0 0 0];

internalField   nonuniform List<scalar> 
24170
(
3.05909e-06
7.48067e-08
2.95472e-06
1.04366e-07
2.85737e-06
9.73536e-08
2.76472e-06
9.26487e-08
2.67763e-06
8.70987e-08
2.59944e-06
7.81924e-08
2.53125e-06
6.81903e-08
2.47232e-06
5.89231e-08
2.42149e-06
5.0841e-08
2.3776e-06
4.38836e-08
2.33969e-06
3.79109e-08
2.30693e-06
3.27688e-08
2.27863e-06
2.82934e-08
2.25429e-06
2.43418e-08
2.23365e-06
2.06426e-08
2.21633e-06
1.73226e-08
2.20231e-06
1.40234e-08
9.58045e-09
2.19273e-06
3.51041e-06
2.08373e-08
3.5283e-06
8.64865e-08
3.53463e-06
9.10178e-08
3.53279e-06
9.44971e-08
3.52377e-06
9.61186e-08
3.50902e-06
9.29425e-08
3.48992e-06
8.72979e-08
3.46773e-06
8.11125e-08
3.44361e-06
7.49652e-08
3.41848e-06
6.9012e-08
3.39307e-06
6.33223e-08
3.3679e-06
5.79428e-08
3.34336e-06
5.28423e-08
3.31972e-06
4.79843e-08
3.29719e-06
4.31673e-08
3.27603e-06
3.84857e-08
3.25708e-06
3.29779e-08
2.54614e-08
3.2412e-06
3.81758e-06
1.54534e-08
3.83015e-06
7.39117e-08
3.84036e-06
8.08116e-08
3.8511e-06
8.37591e-08
3.86092e-06
8.62984e-08
3.86861e-06
8.5257e-08
3.87404e-06
8.1869e-08
3.87743e-06
7.77165e-08
3.87906e-06
7.33386e-08
3.8792e-06
6.88703e-08
3.87813e-06
6.43912e-08
3.87611e-06
5.9968e-08
3.87335e-06
5.55995e-08
3.87009e-06
5.12511e-08
3.86647e-06
4.67825e-08
3.86289e-06
4.20717e-08
3.85935e-06
3.65153e-08
2.9499e-08
3.85532e-06
4.20346e-06
1.65517e-08
4.2151e-06
6.22701e-08
4.22336e-06
7.25529e-08
4.23101e-06
7.6109e-08
4.2383e-06
7.90169e-08
4.2446e-06
7.89525e-08
4.25002e-06
7.64499e-08
4.2548e-06
7.29481e-08
4.25903e-06
6.91083e-08
4.26279e-06
6.51133e-08
4.26613e-06
6.10467e-08
4.26913e-06
5.69703e-08
4.27185e-06
5.28849e-08
4.27435e-06
4.87489e-08
4.2767e-06
4.44408e-08
4.27896e-06
3.9809e-08
4.28093e-06
3.45506e-08
2.83413e-08
4.28208e-06
4.63768e-06
1.61747e-08
4.64716e-06
5.27994e-08
4.65397e-06
6.5734e-08
4.65998e-06
7.01076e-08
4.66599e-06
7.30004e-08
4.67159e-06
7.33587e-08
4.67666e-06
7.13793e-08
4.68132e-06
6.82876e-08
4.68565e-06
6.47798e-08
4.68969e-06
6.10682e-08
4.6935e-06
5.72378e-08
4.69713e-06
5.33467e-08
4.70061e-06
4.94027e-08
4.70399e-06
4.53686e-08
4.70728e-06
4.11511e-08
4.71046e-06
3.66348e-08
4.71334e-06
3.1666e-08
2.61109e-08
4.71558e-06
5.11603e-06
1.47371e-08
5.12365e-06
4.51867e-08
5.1301e-06
5.92779e-08
5.13589e-06
6.43228e-08
5.14175e-06
6.71423e-08
5.14733e-06
6.77793e-08
5.15244e-06
6.62703e-08
5.15715e-06
6.35829e-08
5.16154e-06
6.03908e-08
5.16568e-06
5.69332e-08
5.16961e-06
5.33064e-08
5.17339e-06
4.95709e-08
5.17704e-06
4.57472e-08
5.1806e-06
4.18114e-08
5.18405e-06
3.77043e-08
5.18733e-06
3.3353e-08
5.19031e-06
2.86951e-08
2.37077e-08
5.19271e-06
5.64262e-06
1.31248e-08
5.64911e-06
3.86945e-08
5.65569e-06
5.27034e-08
5.66167e-06
5.83457e-08
5.6676e-06
6.121e-08
5.67329e-06
6.20843e-08
5.67856e-06
6.10009e-08
5.68345e-06
5.87016e-08
5.68802e-06
5.58153e-08
5.69235e-06
5.26058e-08
5.69647e-06
4.91827e-08
5.70043e-06
4.56127e-08
5.70425e-06
4.1929e-08
5.70794e-06
3.81263e-08
5.71147e-06
3.41772e-08
5.71477e-06
3.00485e-08
5.71773e-06
2.57375e-08
2.12819e-08
5.72016e-06
4.40729e-06
1.19419e-08
4.41142e-06
3.45748e-08
4.41614e-06
4.79835e-08
4.42057e-06
5.39169e-08
4.4249e-06
5.68808e-08
4.4291e-06
5.78855e-08
4.43305e-06
5.70531e-08
4.43674e-06
5.50176e-08
4.4402e-06
5.23538e-08
4.44348e-06
4.93286e-08
4.4466e-06
4.60618e-08
4.44959e-06
4.26268e-08
4.45245e-06
3.90659e-08
4.45519e-06
3.53874e-08
4.45779e-06
3.15835e-08
4.46019e-06
2.76461e-08
4.46233e-06
2.35978e-08
1.94951e-08
4.46412e-06
5.1411e-06
1.06945e-08
5.14523e-06
3.04536e-08
5.1502e-06
4.30099e-08
5.15504e-06
4.90796e-08
5.15982e-06
5.21025e-08
5.1645e-06
5.32088e-08
5.16894e-06
5.26129e-08
5.17311e-06
5.08439e-08
5.17705e-06
4.84161e-08
5.18078e-06
4.55959e-08
5.18434e-06
4.25107e-08
5.18772e-06
3.924e-08
5.19095e-06
3.58355e-08
5.19402e-06
3.23195e-08
5.1969e-06
2.87035e-08
5.19955e-06
2.49988e-08
5.2019e-06
2.12464e-08
1.75082e-08
5.20389e-06
5.9971e-06
9.38422e-09
6.00117e-06
2.63891e-08
6.00632e-06
3.78607e-08
6.01153e-06
4.3868e-08
6.01676e-06
4.6882e-08
6.02192e-06
4.80462e-08
6.02688e-06
4.76572e-08
6.03158e-06
4.6146e-08
6.03603e-06
4.39609e-08
6.04027e-06
4.13623e-08
6.0443e-06
3.84838e-08
6.04813e-06
3.54095e-08
6.05176e-06
3.21994e-08
6.05519e-06
2.88896e-08
6.05839e-06
2.55053e-08
6.06131e-06
2.20768e-08
6.06391e-06
1.86498e-08
1.52879e-08
6.06613e-06
6.99562e-06
8.034e-09
6.99958e-06
2.24231e-08
7.00485e-06
3.25964e-08
7.0104e-06
3.83193e-08
7.01604e-06
4.1244e-08
7.02167e-06
4.24123e-08
7.02715e-06
4.21829e-08
7.03239e-06
4.09088e-08
7.03739e-06
3.89651e-08
7.04215e-06
3.6601e-08
7.04668e-06
3.39521e-08
7.05098e-06
3.11073e-08
7.05505e-06
2.81315e-08
7.05887e-06
2.50711e-08
7.06241e-06
2.19645e-08
7.06564e-06
1.88489e-08
7.06852e-06
1.57752e-08
1.27953e-08
7.07101e-06
8.16037e-06
6.67548e-09
8.16423e-06
1.85715e-08
8.16954e-06
2.72811e-08
8.17537e-06
3.24896e-08
8.1814e-06
3.52208e-08
8.18748e-06
3.63297e-08
8.19347e-06
3.62014e-08
8.19924e-06
3.51302e-08
8.20479e-06
3.34224e-08
8.21009e-06
3.13011e-08
8.21514e-06
2.89047e-08
8.21992e-06
2.63206e-08
8.22444e-06
2.36191e-08
8.22866e-06
2.08503e-08
8.23256e-06
1.80613e-08
8.23612e-06
1.52922e-08
8.2393e-06
1.25908e-08
1.00003e-08
8.2421e-06
9.51907e-06
5.33473e-09
9.52281e-06
1.48345e-08
9.52812e-06
2.19676e-08
9.53417e-06
2.64429e-08
9.54054e-06
2.88492e-08
9.54705e-06
2.98233e-08
9.55352e-06
2.97289e-08
9.55984e-06
2.88187e-08
9.56593e-06
2.73312e-08
9.57177e-06
2.54611e-08
9.57734e-06
2.33355e-08
9.58261e-06
2.10449e-08
9.58758e-06
1.86526e-08
9.59222e-06
1.62165e-08
9.5965e-06
1.37784e-08
9.60041e-06
1.13842e-08
9.60393e-06
9.06991e-09
6.8725e-09
9.60706e-06
1.1104e-05
4.02463e-09
1.11076e-05
1.12021e-08
1.11129e-05
1.66842e-08
1.11191e-05
2.02335e-08
1.11258e-05
2.21669e-08
1.11327e-05
2.29158e-08
1.11397e-05
2.27845e-08
1.11465e-05
2.19827e-08
1.11532e-05
2.06948e-08
1.11595e-05
1.90753e-08
1.11656e-05
1.72392e-08
1.11714e-05
1.52661e-08
1.11769e-05
1.32191e-08
1.11819e-05
1.11459e-08
1.11866e-05
9.09183e-09
1.11909e-05
7.09116e-09
1.11948e-05
5.17975e-09
3.37675e-09
1.11983e-05
1.29529e-05
2.74588e-09
1.29565e-05
7.64812e-09
1.29617e-05
1.14227e-08
1.29681e-05
1.38871e-08
1.2975e-05
1.51967e-08
1.29823e-05
1.56182e-08
1.29898e-05
1.53738e-08
1.29971e-05
1.46248e-08
1.30043e-05
1.35058e-08
1.30112e-05
1.21322e-08
1.30179e-05
1.05951e-08
1.30242e-05
8.96201e-09
1.30301e-05
7.28431e-09
1.30357e-05
5.60362e-09
1.30408e-05
3.95505e-09
1.30455e-05
2.36817e-09
1.30498e-05
8.68081e-10
-5.32415e-10
1.30538e-05
1.51097e-05
1.48383e-09
1.51132e-05
4.11935e-09
1.51185e-05
6.12762e-09
1.51251e-05
7.37153e-09
1.51323e-05
7.91509e-09
1.51401e-05
7.9022e-09
1.5148e-05
7.46639e-09
1.51559e-05
6.71378e-09
1.51636e-05
5.73023e-09
1.51712e-05
4.59202e-09
1.51784e-05
3.35951e-09
1.51853e-05
2.08138e-09
1.51918e-05
7.93506e-10
1.51979e-05
-4.7392e-10
1.52035e-05
-1.69703e-09
1.52088e-05
-2.8553e-09
1.52136e-05
-3.93233e-09
-4.9232e-09
1.52179e-05
1.76257e-05
2.06647e-10
1.76293e-05
5.15967e-10
1.76348e-05
6.65101e-10
1.76416e-05
5.54509e-10
1.76493e-05
2.00286e-10
1.76576e-05
-3.53069e-10
1.76661e-05
-1.05208e-09
1.76747e-05
-1.86028e-09
1.76831e-05
-2.73498e-09
1.76914e-05
-3.64839e-09
1.76993e-05
-4.56843e-09
1.77069e-05
-5.47815e-09
1.7714e-05
-6.35512e-09
1.77207e-05
-7.18955e-09
1.7727e-05
-7.96578e-09
1.77328e-05
-8.67872e-09
1.77382e-05
-9.31663e-09
-9.88536e-09
1.77432e-05
1.78274e-05
-9.84442e-10
1.78308e-05
-2.85956e-09
1.78359e-05
-4.48711e-09
1.78424e-05
-5.91766e-09
1.78498e-05
-7.16949e-09
1.78577e-05
-8.26632e-09
1.78659e-05
-9.24768e-09
1.78741e-05
-1.01252e-08
1.78823e-05
-1.09165e-08
1.78903e-05
-1.16208e-08
1.7898e-05
-1.22546e-08
1.79053e-05
-1.28139e-08
1.79123e-05
-1.33096e-08
1.79188e-05
-1.37342e-08
1.7925e-05
-1.40972e-08
1.79307e-05
-1.43919e-08
1.7936e-05
-1.46263e-08
-1.48005e-08
1.79409e-05
1.58824e-05
-2.03891e-09
1.58854e-05
-5.84528e-09
1.589e-05
-9.06047e-09
1.58957e-05
-1.16692e-08
1.59022e-05
-1.36931e-08
1.59092e-05
-1.52563e-08
1.59165e-05
-1.64692e-08
1.59237e-05
-1.7406e-08
1.59309e-05
-1.81064e-08
1.59379e-05
-1.86248e-08
1.59447e-05
-1.89935e-08
1.59511e-05
-1.92492e-08
1.59572e-05
-1.94035e-08
1.59629e-05
-1.94789e-08
1.59683e-05
-1.94794e-08
1.59734e-05
-1.94224e-08
1.5978e-05
-1.93062e-08
-1.915e-08
1.59824e-05
1.41496e-05
-3.01556e-09
1.41524e-05
-8.62302e-09
1.41567e-05
-1.33518e-08
1.41621e-05
-1.70352e-08
1.41681e-05
-1.97131e-08
1.41745e-05
-2.16478e-08
1.41811e-05
-2.30446e-08
1.41877e-05
-2.39984e-08
1.41942e-05
-2.45951e-08
1.42005e-05
-2.49172e-08
1.42065e-05
-2.50372e-08
1.42123e-05
-2.50016e-08
1.42177e-05
-2.48468e-08
1.42228e-05
-2.45984e-08
1.42276e-05
-2.42789e-08
1.42321e-05
-2.39024e-08
1.42363e-05
-2.34817e-08
-2.30274e-08
1.42402e-05
1.26059e-05
-3.92237e-09
1.26086e-05
-1.12987e-08
1.26128e-05
-1.75564e-08
1.2618e-05
-2.22118e-08
1.26237e-05
-2.54074e-08
1.26297e-05
-2.76386e-08
1.26358e-05
-2.91633e-08
1.26419e-05
-3.00889e-08
1.26478e-05
-3.05428e-08
1.26536e-05
-3.06561e-08
1.26591e-05
-3.05251e-08
1.26643e-05
-3.02091e-08
1.26692e-05
-2.97602e-08
1.26738e-05
-2.92107e-08
1.26781e-05
-2.85957e-08
1.26822e-05
-2.79296e-08
1.26859e-05
-2.72333e-08
-2.65153e-08
1.26894e-05
1.12306e-05
-4.69697e-09
1.12332e-05
-1.39409e-08
1.12375e-05
-2.18504e-08
1.12426e-05
-2.72996e-08
1.1248e-05
-3.08455e-08
1.12537e-05
-3.3319e-08
1.12595e-05
-3.49336e-08
1.12652e-05
-3.57791e-08
1.12707e-05
-3.6052e-08
1.1276e-05
-3.59372e-08
1.1281e-05
-3.55454e-08
1.12857e-05
-3.49533e-08
1.12902e-05
-3.42151e-08
1.12944e-05
-3.33844e-08
1.12983e-05
-3.24881e-08
1.13019e-05
-3.15594e-08
1.13053e-05
-3.06042e-08
-2.96464e-08
1.13084e-05
1.00051e-05
-5.20882e-09
1.00078e-05
-1.65779e-08
1.00123e-05
-2.63852e-08
1.00173e-05
-3.23509e-08
1.00226e-05
-3.60698e-08
1.0028e-05
-3.87338e-08
1.00334e-05
-4.03798e-08
1.00387e-05
-4.1095e-08
1.00439e-05
-4.11663e-08
1.00487e-05
-4.08163e-08
1.00534e-05
-4.01657e-08
1.00577e-05
-3.92973e-08
1.00618e-05
-3.82838e-08
1.00656e-05
-3.71791e-08
1.00691e-05
-3.60261e-08
1.00724e-05
-3.48472e-08
1.00755e-05
-3.36674e-08
-3.24949e-08
1.00783e-05
8.91322e-06
-5.33301e-09
8.91595e-06
-1.93042e-08
8.92066e-06
-3.10963e-08
8.92557e-06
-3.72595e-08
8.93064e-06
-4.11395e-08
8.93588e-06
-4.39745e-08
8.94105e-06
-4.55549e-08
8.94603e-06
-4.60734e-08
8.95079e-06
-4.59232e-08
8.95531e-06
-4.53394e-08
8.95958e-06
-4.44356e-08
8.96359e-06
-4.33041e-08
8.96733e-06
-4.20273e-08
8.97082e-06
-4.06683e-08
8.97407e-06
-3.92709e-08
8.97709e-06
-3.78659e-08
8.97989e-06
-3.64662e-08
-3.50767e-08
8.98247e-06
7.93996e-06
-4.62483e-09
7.94342e-06
-2.27655e-08
7.94804e-06
-3.57129e-08
7.95246e-06
-4.16867e-08
7.95734e-06
-4.60177e-08
7.96251e-06
-4.91474e-08
7.96759e-06
-5.06326e-08
7.97243e-06
-5.09188e-08
7.97704e-06
-5.05255e-08
7.98139e-06
-4.96881e-08
7.98547e-06
-4.85172e-08
7.98928e-06
-4.71158e-08
7.99283e-06
-4.55738e-08
7.99612e-06
-4.39615e-08
7.99918e-06
-4.23271e-08
8.00202e-06
-4.07031e-08
8.00466e-06
-3.91139e-08
-3.75755e-08
8.00717e-06
7.0707e-06
-9.93022e-10
7.07635e-06
-2.8415e-08
7.08137e-06
-4.07352e-08
7.08569e-06
-4.60064e-08
7.09058e-06
-5.09121e-08
7.09577e-06
-5.43304e-08
7.10085e-06
-5.57129e-08
7.10573e-06
-5.58018e-08
7.11039e-06
-5.51858e-08
7.11479e-06
-5.40918e-08
7.11891e-06
-5.26393e-08
7.12275e-06
-5.09494e-08
7.1263e-06
-4.91277e-08
7.12958e-06
-4.72446e-08
7.13262e-06
-4.53601e-08
7.13542e-06
-4.3506e-08
7.138e-06
-4.16952e-08
-3.98858e-08
7.14032e-06
6.29322e-06
8.30022e-09
6.30154e-06
-3.67306e-08
6.30853e-06
-4.77331e-08
6.31494e-06
-5.24179e-08
6.32153e-06
-5.74966e-08
6.32774e-06
-6.0546e-08
6.33343e-06
-6.13993e-08
6.33872e-06
-6.10955e-08
6.3437e-06
-6.01681e-08
6.34836e-06
-5.87507e-08
6.35268e-06
-5.696e-08
6.35666e-06
-5.49299e-08
6.36031e-06
-5.27717e-08
6.36363e-06
-5.05693e-08
6.36665e-06
-4.83843e-08
6.36941e-06
-4.62595e-08
6.37194e-06
-4.42269e-08
-4.23068e-08
6.37436e-06
5.60761e-06
1.55881e-08
5.61536e-06
-4.44746e-08
5.62307e-06
-5.54452e-08
5.63261e-06
-6.19645e-08
5.64322e-06
-6.81067e-08
5.6533e-06
-7.06241e-08
5.66228e-06
-7.03767e-08
5.67016e-06
-6.89743e-08
5.67699e-06
-6.70051e-08
5.68284e-06
-6.45971e-08
5.68774e-06
-6.18671e-08
5.69178e-06
-5.89633e-08
5.69501e-06
-5.60022e-08
5.69751e-06
-5.30684e-08
5.69935e-06
-5.02299e-08
5.70064e-06
-4.75496e-08
5.70145e-06
-4.50392e-08
-4.27686e-08
5.70192e-06
5.04169e-06
-2.37971e-08
5.05635e-06
-5.91271e-08
5.0672e-06
-6.63008e-08
5.07692e-06
-7.1686e-08
5.08572e-06
-7.6907e-08
5.09227e-06
-7.71745e-08
5.09569e-06
-7.37949e-08
5.09572e-06
-6.90045e-08
5.09255e-06
-6.38442e-08
5.08661e-06
-5.86591e-08
5.07839e-06
-5.36381e-08
5.06833e-06
-4.8908e-08
5.05687e-06
-4.45376e-08
5.04435e-06
-4.05538e-08
5.03109e-06
-3.697e-08
5.01735e-06
-3.38106e-08
5.00341e-06
-3.10965e-08
-2.93079e-08
4.98995e-06
4.43275e-06
4.37362e-06
4.30732e-06
4.23564e-06
4.15873e-06
4.08156e-06
4.00776e-06
3.93876e-06
3.87491e-06
3.81625e-06
3.76261e-06
3.71371e-06
3.66917e-06
3.62861e-06
3.59164e-06
3.55783e-06
3.52674e-06
3.49743e-06
1.32441e-08
-1.33801e-08
3.86303e-08
-2.54904e-08
6.55733e-08
-2.71179e-08
9.00431e-08
-2.45176e-08
1.09554e-07
-1.9669e-08
1.23277e-07
-1.37428e-08
1.30469e-07
-7.35114e-09
1.3129e-07
-8.2606e-10
1.25614e-07
5.50392e-09
1.1435e-07
1.12642e-08
9.79433e-08
1.62064e-08
7.767e-08
2.02744e-08
5.39494e-08
2.35015e-08
2.79343e-08
2.60305e-08
-3.37223e-10
2.80258e-08
-3.02592e-08
2.99555e-08
-6.26873e-08
3.22082e-08
-9.72815e-08
3.46475e-08
-1.34727e-07
3.72503e-08
-1.74769e-07
4.0091e-08
-2.18097e-07
4.31284e-08
-2.64366e-07
4.63065e-08
-3.14078e-07
4.9525e-08
-3.66775e-07
5.27207e-08
-4.22746e-07
5.57736e-08
-4.81339e-07
5.8601e-08
-5.42628e-07
6.1101e-08
-6.05854e-07
6.32209e-08
-6.70945e-07
6.48946e-08
-7.37059e-07
6.61019e-08
-8.04055e-07
6.68094e-08
-8.71106e-07
6.70441e-08
-9.38095e-07
6.68192e-08
-1.00429e-06
6.61986e-08
-1.06967e-06
6.52192e-08
-1.13362e-06
6.39589e-08
-1.19622e-06
6.2458e-08
-1.25699e-06
6.07941e-08
-1.31612e-06
5.90032e-08
-1.37324e-06
5.71532e-08
-1.42862e-06
5.52635e-08
-1.48198e-06
5.33895e-08
-1.53362e-06
5.15362e-08
-1.58334e-06
4.97425e-08
-1.63147e-06
4.80018e-08
-1.67781e-06
4.63463e-08
-1.72271e-06
4.47607e-08
-1.76599e-06
4.32678e-08
-1.80799e-06
4.18459e-08
-1.84853e-06
4.05176e-08
-1.88794e-06
3.92577e-08
-1.92606e-06
3.80833e-08
-1.96318e-06
3.69673e-08
-1.99915e-06
3.59295e-08
-2.03425e-06
3.49413e-08
-2.06831e-06
3.40205e-08
-2.10162e-06
3.31399e-08
-2.13399e-06
3.23213e-08
-2.16569e-06
3.15365e-08
-2.19654e-06
3.08099e-08
-2.22681e-06
3.01117e-08
-2.2563e-06
2.94685e-08
-2.28528e-06
2.88498e-08
-2.31357e-06
2.82841e-08
-2.34144e-06
2.77407e-08
-2.36869e-06
2.72505e-08
-2.39559e-06
2.67825e-08
-2.42197e-06
2.63702e-08
-2.44807e-06
2.59813e-08
-2.47373e-06
2.56517e-08
-2.49921e-06
2.53468e-08
-2.52433e-06
2.51031e-08
-2.54935e-06
2.48857e-08
-2.57412e-06
2.47321e-08
-2.59887e-06
2.46052e-08
-2.62347e-06
2.45415e-08
-2.64813e-06
2.45024e-08
-2.67273e-06
2.45195e-08
-2.69745e-06
2.45539e-08
-2.7222e-06
2.46454e-08
-2.74716e-06
2.47894e-08
-2.77226e-06
2.49774e-08
-2.79756e-06
2.512e-08
-2.823e-06
2.5292e-08
-2.84868e-06
2.55091e-08
-2.87456e-06
2.57031e-08
-2.90059e-06
2.58651e-08
-2.92677e-06
2.60086e-08
-2.95304e-06
2.61204e-08
-2.97934e-06
2.6195e-08
-3.00564e-06
2.61875e-08
-3.03181e-06
2.606e-08
-3.05784e-06
2.58861e-08
-3.08343e-06
2.53994e-08
-3.10863e-06
2.4969e-08
-3.13347e-06
2.45316e-08
-3.15743e-06
2.36194e-08
-3.18039e-06
2.25682e-08
-3.2021e-06
2.13265e-08
-3.22235e-06
1.98274e-08
-3.24091e-06
1.81729e-08
-3.25757e-06
1.62558e-08
-3.27191e-06
1.39677e-08
-3.28326e-06
1.09522e-08
-3.29162e-06
8.02413e-09
-3.29671e-06
4.703e-09
-3.29828e-06
1.25669e-09
-3.29675e-06
-1.8904e-09
-3.29173e-06
-5.29694e-09
-3.28333e-06
-8.72361e-09
-3.27124e-06
-1.23289e-08
-3.25537e-06
-1.61625e-08
-3.23536e-06
-2.01991e-08
-3.21106e-06
-2.45418e-08
-3.18232e-06
-2.88736e-08
-3.14913e-06
-3.3384e-08
-3.11118e-06
-3.80238e-08
-3.06863e-06
-4.26676e-08
-3.02108e-06
-4.75586e-08
-2.96858e-06
-5.25423e-08
-2.91109e-06
-5.74196e-08
-2.84856e-06
-6.25018e-08
-2.78091e-06
-6.7496e-08
-2.70827e-06
-7.2519e-08
-2.63059e-06
-7.74545e-08
-2.54802e-06
-8.23566e-08
-2.46059e-06
-8.71259e-08
-2.36852e-06
-9.17909e-08
-2.27189e-06
-9.62648e-08
-2.17096e-06
-1.00565e-07
-2.06591e-06
-1.04614e-07
-1.95709e-06
-1.08415e-07
-1.84477e-06
-1.11911e-07
-1.72932e-06
-1.15091e-07
-1.61104e-06
-1.17918e-07
-1.49029e-06
-1.20377e-07
-1.36744e-06
-1.22449e-07
-1.24291e-06
-1.24121e-07
-1.11709e-06
-1.25393e-07
-9.90343e-07
-1.2627e-07
-8.63093e-07
-1.26781e-07
-7.35687e-07
-1.26922e-07
-6.08505e-07
-1.26764e-07
-4.81902e-07
-1.26213e-07
-3.56295e-07
-1.2532e-07
-2.31543e-07
-1.24533e-07
-1.07166e-07
-1.24309e-07
1.79071e-08
-1.251e-07
1.42702e-07
-1.24899e-07
2.64886e-07
-1.22313e-07
3.83573e-07
-1.18824e-07
4.98339e-07
-1.14914e-07
6.08971e-07
-1.10786e-07
7.15345e-07
-1.06535e-07
8.17419e-07
-1.02229e-07
9.15181e-07
-9.79153e-08
1.00869e-06
-9.36507e-08
1.098e-06
-8.94404e-08
1.18319e-06
-8.53104e-08
1.26438e-06
-8.13055e-08
1.3417e-06
-7.74175e-08
1.41524e-06
-7.36316e-08
1.48512e-06
-6.99653e-08
1.55149e-06
-6.64306e-08
1.61445e-06
-6.30278e-08
1.67413e-06
-5.97256e-08
1.7306e-06
-5.65236e-08
1.78398e-06
-5.34175e-08
1.83435e-06
-5.03998e-08
1.88176e-06
-4.74409e-08
1.92624e-06
-4.45116e-08
1.96775e-06
-4.15382e-08
2.00614e-06
-3.84255e-08
2.04112e-06
-3.49998e-08
2.07204e-06
-3.09565e-08
2.09768e-06
-2.56768e-08
2.11507e-06
-1.74371e-08
2.11546e-06
-4.16451e-10
2.07688e-06
3.85531e-08
1.06636e-07
1.97024e-06
2.77284e-08
-4.11994e-08
4.74797e-08
-4.53083e-08
5.89146e-08
-3.86173e-08
6.47998e-08
-3.04332e-08
6.63679e-08
-2.12849e-08
6.41196e-08
-1.15155e-08
5.81957e-08
-1.47172e-09
4.87759e-08
8.57559e-09
3.58264e-08
1.8407e-08
1.92682e-08
2.78026e-08
-1.12952e-09
3.65526e-08
-2.5401e-08
4.45229e-08
-5.36398e-08
5.16899e-08
-8.5771e-08
5.81433e-08
-1.21862e-07
6.407e-08
-1.61637e-07
6.97152e-08
-2.04766e-07
7.52954e-08
-2.51054e-07
8.09302e-08
-3.00515e-07
8.66693e-08
-3.52933e-07
9.24988e-08
-4.08189e-07
9.83397e-08
-4.65961e-07
1.04069e-07
-5.26024e-07
1.09541e-07
-5.87924e-07
1.14606e-07
-6.51318e-07
1.19116e-07
-7.1568e-07
1.22946e-07
-7.80634e-07
1.26e-07
-8.45656e-07
1.28221e-07
-9.10403e-07
1.29583e-07
-9.74416e-07
1.30091e-07
-1.03744e-06
1.29778e-07
-1.09914e-06
1.28716e-07
-1.15936e-06
1.26993e-07
-1.2179e-06
1.24714e-07
-1.27471e-06
1.21984e-07
-1.32968e-06
1.18907e-07
-1.38285e-06
1.15578e-07
-1.43415e-06
1.12086e-07
-1.4837e-06
1.08507e-07
-1.53147e-06
1.04911e-07
-1.57759e-06
1.01348e-07
-1.62207e-06
9.78634e-08
-1.66506e-06
9.44849e-08
-1.70657e-06
9.12383e-08
-1.74675e-06
8.81345e-08
-1.78561e-06
8.51857e-08
-1.8233e-06
8.23909e-08
-1.85982e-06
7.97537e-08
-1.8953e-06
7.72668e-08
-1.92975e-06
7.49287e-08
-1.96328e-06
7.27272e-08
-1.9959e-06
7.06589e-08
-2.0277e-06
6.87109e-08
-2.0587e-06
6.68801e-08
-2.08897e-06
6.51531e-08
-2.11852e-06
6.35274e-08
-2.14744e-06
6.19913e-08
-2.17571e-06
6.05455e-08
-2.20342e-06
5.91791e-08
-2.23055e-06
5.78945e-08
-2.25717e-06
5.6682e-08
-2.28329e-06
5.55457e-08
-2.30896e-06
5.44765e-08
-2.33419e-06
5.34806e-08
-2.35904e-06
5.25498e-08
-2.38351e-06
5.16927e-08
-2.40767e-06
5.09016e-08
-2.43152e-06
5.01869e-08
-2.45512e-06
4.95408e-08
-2.47847e-06
4.89744e-08
-2.50165e-06
4.84785e-08
-2.52465e-06
4.80644e-08
-2.54754e-06
4.77207e-08
-2.57031e-06
4.74578e-08
-2.59303e-06
4.72623e-08
-2.61569e-06
4.71426e-08
-2.63834e-06
4.7083e-08
-2.66098e-06
4.70903e-08
-2.68365e-06
4.71493e-08
-2.70635e-06
4.72699e-08
-2.7291e-06
4.74409e-08
-2.75185e-06
4.7645e-08
-2.77467e-06
4.78361e-08
-2.79749e-06
4.80232e-08
-2.82029e-06
4.82046e-08
-2.84304e-06
4.83459e-08
-2.8657e-06
4.84166e-08
-2.88821e-06
4.84069e-08
-2.91047e-06
4.83066e-08
-2.93242e-06
4.80653e-08
-2.95396e-06
4.76591e-08
-2.97502e-06
4.70424e-08
-2.99543e-06
4.61953e-08
-3.01522e-06
4.50685e-08
-3.03413e-06
4.36983e-08
-3.05185e-06
4.20558e-08
-3.06847e-06
3.99871e-08
-3.08369e-06
3.75459e-08
-3.09738e-06
3.47401e-08
-3.10936e-06
3.1553e-08
-3.11946e-06
2.80001e-08
-3.1275e-06
2.40484e-08
-3.13343e-06
1.96323e-08
-3.13742e-06
1.47096e-08
-3.13917e-06
9.5136e-09
-3.13869e-06
4.00369e-09
-3.13585e-06
-1.82787e-09
-3.12996e-06
-7.98029e-09
-3.12091e-06
-1.45657e-08
-3.1083e-06
-2.15102e-08
-3.09198e-06
-2.88493e-08
-3.0717e-06
-3.65862e-08
-3.04737e-06
-4.47008e-08
-3.01882e-06
-5.32051e-08
-2.98586e-06
-6.19728e-08
-2.9483e-06
-7.10208e-08
-2.90607e-06
-8.03419e-08
-2.8589e-06
-8.98758e-08
-2.80689e-06
-9.96143e-08
-2.74991e-06
-1.09517e-07
-2.68779e-06
-1.19534e-07
-2.62058e-06
-1.29659e-07
-2.54822e-06
-1.39786e-07
-2.47073e-06
-1.49906e-07
-2.38816e-06
-1.59915e-07
-2.30057e-06
-1.69799e-07
-2.20806e-06
-1.79465e-07
-2.11079e-06
-1.88875e-07
-2.00892e-06
-1.97936e-07
-1.90265e-06
-2.06601e-07
-1.79224e-06
-2.14782e-07
-1.67798e-06
-2.22433e-07
-1.5602e-06
-2.29471e-07
-1.43924e-06
-2.35851e-07
-1.31545e-06
-2.41506e-07
-1.18923e-06
-2.46401e-07
-1.06097e-06
-2.505e-07
-9.31092e-07
-2.53783e-07
-8.00021e-07
-2.56233e-07
-6.68174e-07
-2.57874e-07
-5.35968e-07
-2.58738e-07
-4.03807e-07
-2.58849e-07
-2.7205e-07
-2.58311e-07
-1.40768e-07
-2.57323e-07
-9.99014e-09
-2.55966e-07
1.1963e-07
-2.54083e-07
2.46973e-07
-2.51635e-07
3.704e-07
-2.48567e-07
4.89663e-07
-2.44221e-07
6.0564e-07
-2.38365e-07
7.1829e-07
-2.31548e-07
8.27429e-07
-2.24142e-07
9.32909e-07
-2.16354e-07
1.03462e-06
-2.08344e-07
1.1325e-06
-2.00208e-07
1.22653e-06
-1.9205e-07
1.31672e-06
-1.83934e-07
1.4031e-06
-1.75916e-07
1.48573e-06
-1.68023e-07
1.56466e-06
-1.60323e-07
1.63998e-06
-1.52813e-07
1.71179e-06
-1.45516e-07
1.7802e-06
-1.38436e-07
1.84531e-06
-1.31598e-07
1.90721e-06
-1.24987e-07
1.96602e-06
-1.18578e-07
2.02181e-06
-1.12354e-07
2.07467e-06
-1.06318e-07
2.12468e-06
-1.00439e-07
2.17189e-06
-9.46756e-08
2.2163e-06
-8.89524e-08
2.25788e-06
-8.3145e-08
2.29649e-06
-7.70553e-08
2.33184e-06
-7.03744e-08
2.36338e-06
-6.25226e-08
2.39015e-06
-5.24741e-08
2.41046e-06
-3.7779e-08
2.42387e-06
-1.38406e-08
2.42955e-06
3.28497e-08
1.22609e-07
2.41359e-06
1.77814e-08
-5.90475e-08
2.54134e-08
-5.2985e-08
2.64307e-08
-3.96785e-08
2.28899e-08
-2.69113e-08
1.58352e-08
-1.42612e-08
5.85628e-09
-1.54997e-09
-6.83735e-09
1.11944e-08
-2.21481e-08
2.38745e-08
-4.01409e-08
3.63727e-08
-6.09034e-08
4.85531e-08
-8.4653e-08
6.02741e-08
-1.11568e-07
7.14241e-08
-1.4186e-07
8.19542e-08
-1.75618e-07
9.18888e-08
-2.1289e-07
1.01315e-07
-2.53535e-07
1.1035e-07
-2.97366e-07
1.191e-07
-3.44078e-07
1.27634e-07
-3.93398e-07
1.35963e-07
-4.44951e-07
1.44042e-07
-4.98408e-07
1.51769e-07
-5.53357e-07
1.59007e-07
-6.09449e-07
1.65606e-07
-6.66268e-07
1.71414e-07
-7.23483e-07
1.76302e-07
-7.80719e-07
1.80171e-07
-8.37703e-07
1.82955e-07
-8.94124e-07
1.84629e-07
-9.49774e-07
1.85204e-07
-1.00443e-06
1.84736e-07
-1.058e-06
1.83315e-07
-1.11035e-06
1.8105e-07
-1.16144e-06
1.78059e-07
-1.21121e-06
1.74471e-07
-1.25966e-06
1.70409e-07
-1.30676e-06
1.65993e-07
-1.35254e-06
1.61332e-07
-1.39699e-06
1.56524e-07
-1.44016e-06
1.51654e-07
-1.48205e-06
1.46793e-07
-1.52273e-06
1.42001e-07
-1.5622e-06
1.37324e-07
-1.60054e-06
1.32793e-07
-1.63775e-06
1.28435e-07
-1.67391e-06
1.24264e-07
-1.70904e-06
1.20291e-07
-1.7432e-06
1.16517e-07
-1.77642e-06
1.12943e-07
-1.80875e-06
1.09563e-07
-1.84022e-06
1.06373e-07
-1.87089e-06
1.03362e-07
-1.90079e-06
1.00521e-07
-1.92995e-06
9.78401e-08
-1.95841e-06
9.53102e-08
-1.98621e-06
9.29206e-08
-2.01338e-06
9.06632e-08
-2.03995e-06
8.85293e-08
-2.06595e-06
8.65127e-08
-2.09141e-06
8.46068e-08
-2.11635e-06
8.2808e-08
-2.14081e-06
8.11107e-08
-2.1648e-06
7.95134e-08
-2.18837e-06
7.80128e-08
-2.21151e-06
7.66089e-08
-2.23429e-06
7.53004e-08
-2.25671e-06
7.40893e-08
-2.27881e-06
7.29754e-08
-2.3006e-06
7.1962e-08
-2.32214e-06
7.10492e-08
-2.34343e-06
7.02405e-08
-2.36451e-06
6.95347e-08
-2.38541e-06
6.89341e-08
-2.40616e-06
6.8436e-08
-2.42677e-06
6.80404e-08
-2.44729e-06
6.77416e-08
-2.46772e-06
6.75373e-08
-2.4881e-06
6.74187e-08
-2.50844e-06
6.73813e-08
-2.52875e-06
6.74149e-08
-2.54905e-06
6.75139e-08
-2.56933e-06
6.76646e-08
-2.58959e-06
6.78465e-08
-2.60985e-06
6.80263e-08
-2.63008e-06
6.81849e-08
-2.65025e-06
6.83054e-08
-2.67033e-06
6.83566e-08
-2.69029e-06
6.83032e-08
-2.71007e-06
6.81207e-08
-2.7296e-06
6.7773e-08
-2.74881e-06
6.72313e-08
-2.76763e-06
6.64326e-08
-2.786e-06
6.53378e-08
-2.80379e-06
6.39106e-08
-2.82094e-06
6.21155e-08
-2.8373e-06
5.9919e-08
-2.8527e-06
5.72947e-08
-2.86706e-06
5.41712e-08
-2.88023e-06
5.05368e-08
-2.89207e-06
4.63804e-08
-2.90239e-06
4.16984e-08
-2.91106e-06
3.64756e-08
-2.91789e-06
3.07119e-08
-2.92281e-06
2.43621e-08
-2.92569e-06
1.74286e-08
-2.9263e-06
9.9428e-09
-2.92438e-06
1.92998e-09
-2.91971e-06
-6.67056e-09
-2.91197e-06
-1.58626e-08
-2.90102e-06
-2.56754e-08
-2.88657e-06
-3.6077e-08
-2.86847e-06
-4.70952e-08
-2.84648e-06
-5.8678e-08
-2.82048e-06
-7.08201e-08
-2.79028e-06
-8.34797e-08
-2.75575e-06
-9.66038e-08
-2.71667e-06
-1.10142e-07
-2.67296e-06
-1.24122e-07
-2.62442e-06
-1.38436e-07
-2.57104e-06
-1.53023e-07
-2.51271e-06
-1.67835e-07
-2.44936e-06
-1.8288e-07
-2.38092e-06
-1.98041e-07
-2.30741e-06
-2.13259e-07
-2.22878e-06
-2.28441e-07
-2.14513e-06
-2.4349e-07
-2.05649e-06
-2.58318e-07
-1.963e-06
-2.72836e-07
-1.86479e-06
-2.8694e-07
-1.76205e-06
-3.00526e-07
-1.655e-06
-3.13484e-07
-1.54389e-06
-3.25712e-07
-1.42904e-06
-3.37111e-07
-1.31077e-06
-3.47579e-07
-1.18945e-06
-3.57027e-07
-1.06544e-06
-3.65371e-07
-9.39152e-07
-3.72544e-07
-8.11002e-07
-3.785e-07
-6.81419e-07
-3.8321e-07
-5.50833e-07
-3.86653e-07
-4.19675e-07
-3.8886e-07
-2.88362e-07
-3.89875e-07
-1.57233e-07
-3.89819e-07
-2.65993e-08
-3.88806e-07
1.0301e-07
-3.86824e-07
2.30902e-07
-3.83779e-07
3.56479e-07
-3.79617e-07
4.79214e-07
-3.74363e-07
5.98559e-07
-3.67928e-07
7.14383e-07
-3.60076e-07
8.2685e-07
-3.50855e-07
9.35893e-07
-3.40615e-07
1.0414e-06
-3.29661e-07
1.14325e-06
-3.18226e-07
1.24138e-06
-3.06488e-07
1.33574e-06
-2.94593e-07
1.42634e-06
-2.8266e-07
1.51319e-06
-2.70788e-07
1.59631e-06
-2.59049e-07
1.67578e-06
-2.47499e-07
1.75167e-06
-2.36207e-07
1.82406e-06
-2.25212e-07
1.89308e-06
-2.14532e-07
1.95881e-06
-2.04174e-07
2.02137e-06
-1.94154e-07
2.08085e-06
-1.84466e-07
2.13736e-06
-1.75076e-07
2.19098e-06
-1.6597e-07
2.2418e-06
-1.57133e-07
2.2899e-06
-1.48528e-07
2.33532e-06
-1.40087e-07
2.37808e-06
-1.31707e-07
2.41814e-06
-1.23202e-07
2.45539e-06
-1.14302e-07
2.48959e-06
-1.04573e-07
2.52032e-06
-9.32595e-08
2.54691e-06
-7.90662e-08
2.56843e-06
-5.93017e-08
2.5841e-06
-2.95179e-08
2.59585e-06
2.10991e-08
1.11102e-07
2.60736e-06
3.98815e-09
-6.30894e-08
-2.91061e-10
-4.87353e-08
-7.78245e-09
-3.22186e-08
-1.79027e-08
-1.68032e-08
-3.0342e-08
-1.84455e-09
-4.48817e-08
1.29812e-08
-6.14814e-08
2.7774e-08
-8.01401e-08
4.25255e-08
-1.00961e-07
5.71736e-08
-1.24041e-07
7.16248e-08
-1.49561e-07
8.57725e-08
-1.77663e-07
9.95173e-08
-2.08517e-07
1.12786e-07
-2.42181e-07
1.25543e-07
-2.78672e-07
1.37785e-07
-3.17857e-07
1.49525e-07
-3.59558e-07
1.60779e-07
-4.03473e-07
1.71539e-07
-4.49299e-07
1.81766e-07
-4.96652e-07
1.91384e-07
-5.45191e-07
2.00284e-07
-5.94536e-07
2.08341e-07
-6.44378e-07
2.15424e-07
-6.94388e-07
2.21415e-07
-7.44327e-07
2.26219e-07
-7.93941e-07
2.29776e-07
-8.43069e-07
2.32062e-07
-8.91541e-07
2.33094e-07
-9.39278e-07
2.32921e-07
-9.86182e-07
2.31633e-07
-1.03222e-06
2.29338e-07
-1.07734e-06
2.26161e-07
-1.12154e-06
2.22236e-07
-1.16477e-06
2.17694e-07
-1.20704e-06
2.12667e-07
-1.24834e-06
2.07276e-07
-1.28866e-06
2.01637e-07
-1.328e-06
1.95851e-07
-1.36637e-06
1.90007e-07
-1.40377e-06
1.84179e-07
-1.44021e-06
1.7843e-07
-1.47571e-06
1.72807e-07
-1.51029e-06
1.67347e-07
-1.54395e-06
1.62078e-07
-1.57673e-06
1.57018e-07
-1.60864e-06
1.52179e-07
-1.63971e-06
1.47565e-07
-1.66997e-06
1.43178e-07
-1.69945e-06
1.39014e-07
-1.72817e-06
1.35067e-07
-1.75616e-06
1.31328e-07
-1.78345e-06
1.27788e-07
-1.81008e-06
1.24436e-07
-1.83605e-06
1.21263e-07
-1.86141e-06
1.18257e-07
-1.88618e-06
1.15409e-07
-1.91038e-06
1.12709e-07
-1.93404e-06
1.10152e-07
-1.95719e-06
1.07729e-07
-1.97983e-06
1.05436e-07
-2.00201e-06
1.03268e-07
-2.02374e-06
1.01223e-07
-2.04504e-06
9.92973e-08
-2.06594e-06
9.74916e-08
-2.08646e-06
9.58057e-08
-2.10663e-06
9.4241e-08
-2.12647e-06
9.27992e-08
-2.14601e-06
9.14827e-08
-2.16528e-06
9.02936e-08
-2.18429e-06
8.9234e-08
-2.20308e-06
8.83048e-08
-2.22168e-06
8.75069e-08
-2.2401e-06
8.68386e-08
-2.25838e-06
8.62977e-08
-2.27655e-06
8.58794e-08
-2.29462e-06
8.5578e-08
-2.31262e-06
8.53847e-08
-2.33056e-06
8.52905e-08
-2.34847e-06
8.52835e-08
-2.36635e-06
8.53507e-08
-2.3842e-06
8.54742e-08
-2.40203e-06
8.56299e-08
-2.41984e-06
8.57862e-08
-2.43762e-06
8.59125e-08
-2.45535e-06
8.59793e-08
-2.473e-06
8.59498e-08
-2.49054e-06
8.57846e-08
-2.50792e-06
8.54445e-08
-2.52508e-06
8.48936e-08
-2.54197e-06
8.40668e-08
-2.55851e-06
8.29282e-08
-2.57464e-06
8.14117e-08
-2.59029e-06
7.9472e-08
-2.60534e-06
7.70643e-08
-2.61969e-06
7.41406e-08
-2.6332e-06
7.06626e-08
-2.64575e-06
6.65777e-08
-2.65723e-06
6.1853e-08
-2.66746e-06
5.64609e-08
-2.6763e-06
5.03874e-08
-2.68358e-06
4.36088e-08
-2.68913e-06
3.61175e-08
-2.69279e-06
2.78753e-08
-2.69438e-06
1.88728e-08
-2.69366e-06
9.0889e-09
-2.6904e-06
-1.46245e-09
-2.68437e-06
-1.28287e-08
-2.67536e-06
-2.4999e-08
-2.66316e-06
-3.7988e-08
-2.64758e-06
-5.17703e-08
-2.62841e-06
-6.63621e-08
-2.60549e-06