/*--------------------------------*- C++ -*----------------------------------*\
| =========                 |                                                 |
| \\      /  F ield         | OpenFOAM: The Open Source CFD Toolbox           |
|  \\    /   O peration     | Version:  4.1                                   |
|   \\  /    A nd           | Web:      www.OpenFOAM.org                      |
|    \\/     M anipulation  |                                                 |
\*---------------------------------------------------------------------------*/
FoamFile
{
    version     2.0;
    format      ascii;
    class       volVectorField;
    location    "100";
    object      U;
}
// * * * * * * * * * * * * * * * * * * * * * * * * * * * * * * * * * * * * * //

dimensions      [0 1 -1 0 0 0 0];

internalField   nonuniform List<vector> 
12225
(
(9.83554 -0.969397 0)
(9.5767 -0.895705 0)
(9.29115 -0.596694 0)
(8.97715 -0.369377 0)
(8.67891 -0.224442 0)
(8.41302 -0.136419 0)
(8.18045 -0.0832774 0)
(7.97838 -0.0508685 0)
(7.80369 -0.0309858 0)
(7.65305 -0.0186123 0)
(7.52314 -0.0109285 0)
(7.41079 -0.0061982 0)
(7.31375 -0.00337897 0)
(7.23003 -0.00184679 0)
(7.15803 -0.00116629 0)
(7.09898 -0.00182105 0)
(7.04355 0.000900976 0)
(7.02182 -0.0207819 0)
(10.0744 0.265632 0)
(10.1924 0.434342 0)
(10.2332 0.398367 0)
(10.2322 0.321207 0)
(10.2112 0.253634 0)
(10.1765 0.201256 0)
(10.1277 0.161913 0)
(10.0673 0.132813 0)
(9.99952 0.111211 0)
(9.92768 0.0948554 0)
(9.85414 0.0821942 0)
(9.78071 0.0721596 0)
(9.7085 0.0639697 0)
(9.63867 0.0571096 0)
(9.57165 0.0508852 0)
(9.50844 0.0456877 0)
(9.44962 0.0382563 0)
(9.39763 0.0370149 0)
(10.0026 0.0614182 0)
(10.0298 0.0474453 0)
(10.0598 0.00567302 0)
(10.0889 -0.00538764 0)
(10.1152 0.0033559 0)
(10.1386 0.0155643 0)
(10.1564 0.0260417 0)
(10.168 0.0342613 0)
(10.1744 0.0403743 0)
(10.1765 0.0446066 0)
(10.1751 0.0472913 0)
(10.171 0.0487561 0)
(10.1646 0.0492409 0)
(10.1566 0.0488838 0)
(10.1474 0.04769 0)
(10.1378 0.0455907 0)
(10.1283 0.042175 0)
(10.118 0.0357884 0)
(9.99668 0.00935194 0)
(10.0076 0.0254888 0)
(10.0331 0.0384653 0)
(10.0551 0.0549565 0)
(10.0722 0.0674503 0)
(10.0878 0.0730542 0)
(10.102 0.074048 0)
(10.1142 0.0729559 0)
(10.1248 0.0709726 0)
(10.1342 0.0685721 0)
(10.1426 0.0659674 0)
(10.1502 0.0632805 0)
(10.1569 0.0605102 0)
(10.1631 0.0576 0)
(10.1688 0.0543632 0)
(10.1742 0.0505825 0)
(10.1793 0.0456375 0)
(10.1834 0.0383254 0)
(9.999 0.00654312 0)
(10.0077 0.034648 0)
(10.0277 0.0493486 0)
(10.0436 0.0559085 0)
(10.0558 0.0589881 0)
(10.0677 0.0597268 0)
(10.0794 0.0591464 0)
(10.0901 0.058144 0)
(10.0997 0.0570409 0)
(10.1087 0.0558368 0)
(10.1171 0.0544941 0)
(10.1251 0.0529821 0)
(10.1328 0.0512481 0)
(10.1401 0.0492016 0)
(10.1473 0.0466824 0)
(10.1543 0.0434741 0)
(10.1609 0.0391901 0)
(10.1666 0.0334899 0)
(10.0002 0.00920876 0)
(10.0078 0.0333601 0)
(10.0233 0.0442255 0)
(10.0367 0.0483707 0)
(10.0476 0.0515932 0)
(10.0584 0.0539114 0)
(10.069 0.0549208 0)
(10.0787 0.0550178 0)
(10.0876 0.0545764 0)
(10.0959 0.0537322 0)
(10.1037 0.0525353 0)
(10.1113 0.0510184 0)
(10.1185 0.0491767 0)
(10.1256 0.0469592 0)
(10.1324 0.0442538 0)
(10.139 0.0409065 0)
(10.1452 0.0367306 0)
(10.1506 0.0315939 0)
(10.0004 0.00899866 0)
(10.0068 0.0279746 0)
(10.0194 0.0382266 0)
(10.0316 0.0434116 0)
(10.0421 0.0474229 0)
(10.0521 0.0501738 0)
(10.0619 0.0513506 0)
(10.071 0.0514405 0)
(10.0794 0.0509198 0)
(10.0872 0.0499808 0)
(10.0947 0.0486894 0)
(10.1018 0.047077 0)
(10.1087 0.0451438 0)
(10.1154 0.0428458 0)
(10.1218 0.0401019 0)
(10.1279 0.0368087 0)
(10.1335 0.0328822 0)
(10.1383 0.0282892 0)
(10.0004 0.00798968 0)
(10.0059 0.0240473 0)
(10.0167 0.0343115 0)
(10.0279 0.0399783 0)
(10.0379 0.0439021 0)
(10.0474 0.04648 0)
(10.0567 0.0476367 0)
(10.0654 0.0477875 0)
(10.0735 0.0473392 0)
(10.0811 0.0464618 0)
(10.0884 0.0452154 0)
(10.0953 0.0436296 0)
(10.1019 0.0417104 0)
(10.1083 0.0394279 0)
(10.1144 0.0367302 0)
(10.1201 0.0335568 0)
(10.1252 0.0298811 0)
(10.1298 0.0257248 0)
(10.0004 0.0071324 0)
(10.0052 0.0212533 0)
(10.0145 0.0310608 0)
(10.0248 0.0367298 0)
(10.0343 0.0405055 0)
(10.0433 0.0429983 0)
(10.0522 0.0442107 0)
(10.0607 0.044458 0)
(10.0686 0.0440858 0)
(10.076 0.0432596 0)
(10.0831 0.0420452 0)
(10.0898 0.0404778 0)
(10.0963 0.0385716 0)
(10.1024 0.0363119 0)
(10.1082 0.0336701 0)
(10.1136 0.0306173 0)
(10.1185 0.0271602 0)
(10.1228 0.023346 0)
(10.0004 0.00631292 0)
(10.0045 0.0185916 0)
(10.0125 0.0275994 0)
(10.0218 0.0331008 0)
(10.0307 0.0367386 0)
(10.0392 0.0391527 0)
(10.0477 0.0404006 0)
(10.0558 0.0407204 0)
(10.0634 0.0404065 0)
(10.0707 0.0396236 0)
(10.0775 0.0384429 0)
(10.0841 0.0369042 0)
(10.0903 0.0350298 0)
(10.0962 0.0328208 0)
(10.1018 0.0302694 0)
(10.1069 0.027373 0)
(10.1115 0.0241596 0)
(10.1156 0.020689 0)
(10.0004 0.00548151 0)
(10.0039 0.0159632 0)
(10.0107 0.0240088 0)
(10.0189 0.0292221 0)
(10.0271 0.0326757 0)
(10.0351 0.0349538 0)
(10.0431 0.0361755 0)
(10.0508 0.0365272 0)
(10.0581 0.0362516 0)
(10.0651 0.0355049 0)
(10.0717 0.0343619 0)
(10.078 0.0328655 0)
(10.084 0.0310453 0)
(10.0897 0.0289169 0)
(10.0949 0.0264906 0)
(10.0998 0.0237831 0)
(10.1042 0.0208349 0)
(10.1081 0.0177071 0)
(10.0003 0.00463318 0)
(10.0033 0.0133944 0)
(10.009 0.020372 0)
(10.0162 0.0251392 0)
(10.0237 0.0283207 0)
(10.0311 0.0303972 0)
(10.0385 0.0315317 0)
(10.0457 0.0318748 0)
(10.0527 0.0316166 0)
(10.0594 0.0308966 0)
(10.0657 0.0297924 0)
(10.0717 0.0283501 0)
(10.0774 0.0266055 0)
(10.0828 0.024585 0)
(10.0878 0.0223136 0)
(10.0924 0.0198203 0)
(10.0965 0.0171507 0)
(10.1002 0.0143596 0)
(10.0003 0.00378624 0)
(10.0028 0.0109037 0)
(10.0076 0.016731 0)
(10.0138 0.0208869 0)
(10.0205 0.0236923 0)
(10.0273 0.0255015 0)
(10.0341 0.0264863 0)
(10.0409 0.0267728 0)
(10.0474 0.0265036 0)
(10.0537 0.0257973 0)
(10.0597 0.0247305 0)
(10.0654 0.0233533 0)
(10.0708 0.0217039 0)
(10.0759 0.0198164 0)
(10.0806 0.0177234 0)
(10.0849 0.0154616 0)
(10.0888 0.0130747 0)
(10.0923 0.0106094 0)
(10.0002 0.00295385 0)
(10.0023 0.00848759 0)
(10.0063 0.0131071 0)
(10.0117 0.016506 0)
(10.0177 0.0188225 0)
(10.0238 0.0202889 0)
(10.0301 0.0210559 0)
(10.0363 0.0212288 0)
(10.0424 0.0209128 0)
(10.0483 0.0202034 0)
(10.0539 0.0191714 0)
(10.0593 0.0178673 0)
(10.0644 0.01633 0)
(10.0691 0.0145953 0)
(10.0735 0.0126986 0)
(10.0776 0.0106778 0)
(10.0812 0.00857269 0)
(10.0846 0.00641895 0)
(10.0002 0.00213995 0)
(10.002 0.0061327 0)
(10.0053 0.00950512 0)
(10.0099 0.0120269 0)
(10.0152 0.013739 0)
(10.0208 0.0147768 0)
(10.0265 0.0152528 0)
(10.0322 0.01525 0)
(10.0379 0.0148454 0)
(10.0433 0.0141108 0)
(10.0486 0.0131063 0)
(10.0536 0.0118773 0)
(10.0583 0.0104613 0)
(10.0628 0.00889118 0)
(10.0669 0.007201 0)
(10.0707 0.00542381 0)
(10.0742 0.00359494 0)
(10.0774 0.00173816 0)
(10.0002 0.00134001 0)
(10.0017 0.00381385 0)
(10.0045 0.00590419 0)
(10.0085 0.00744834 0)
(10.0132 0.00844449 0)
(10.0182 0.00896127 0)
(10.0235 0.00906945 0)
(10.0287 0.00882704 0)
(10.0339 0.00828686 0)
(10.039 0.00749883 0)
(10.0439 0.00650683 0)
(10.0486 0.00534785 0)
(10.053 0.00405323 0)
(10.0572 0.00265101 0)
(10.0611 0.00116853 0)
(10.0647 -0.000367757 0)
(10.068 -0.00193068 0)
(10.0711 -0.00350511 0)
(10.0002 0.000539368 0)
(10.0014 0.00148633 0)
(10.004 0.00225025 0)
(10.0075 0.00272664 0)
(10.0118 0.00290267 0)
(10.0163 0.00280446 0)
(10.0211 0.00246674 0)
(10.026 0.0019197 0)
(10.0309 0.00119394 0)
(10.0356 0.000317233 0)
(10.0402 -0.000683535 0)
(10.0446 -0.00178541 0)
(10.0488 -0.00296602 0)
(10.0527 -0.00420635 0)
(10.0564 -0.00548714 0)
(10.0599 -0.00679148 0)
(10.0631 -0.00810038 0)
(10.066 -0.00940779 0)
(10.0001 -0.000240729 0)
(10.0013 -0.000782637 0)
(10.0037 -0.00133456 0)
(10.007 -0.00194675 0)
(10.011 -0.00262875 0)
(10.0153 -0.00338062 0)
(10.0199 -0.00420124 0)
(10.0245 -0.00508525 0)
(10.0292 -0.00602545 0)
(10.0337 -0.00701273 0)
(10.0381 -0.00804021 0)
(10.0423 -0.00909901 0)
(10.0464 -0.0101811 0)
(10.0501 -0.0112762 0)
(10.0537 -0.0123762 0)
(10.057 -0.0134714 0)
(10.0601 -0.0145531 0)
(10.063 -0.0156203 0)
(10.0001 -0.000952255 0)
(10.0013 -0.00285591 0)
(10.0037 -0.0046245 0)
(10.007 -0.00625078 0)
(10.0109 -0.00773004 0)
(10.0152 -0.00908843 0)
(10.0198 -0.0103572 0)
(10.0243 -0.0115557 0)
(10.0289 -0.0126956 0)
(10.0334 -0.0137875 0)
(10.0378 -0.0148419 0)
(10.0419 -0.0158654 0)
(10.0459 -0.0168621 0)
(10.0496 -0.0178328 0)
(10.0531 -0.0187779 0)
(10.0564 -0.0196968 0)
(10.0594 -0.0205868 0)
(10.0623 -0.021453 0)
(10.0001 -0.00159595 0)
(10.0014 -0.00474528 0)
(10.0038 -0.00763608 0)
(10.0073 -0.0101792 0)
(10.0114 -0.012357 0)
(10.0159 -0.01424 0)
(10.0205 -0.0158936 0)
(10.0252 -0.0173543 0)
(10.0298 -0.0186516 0)
(10.0344 -0.0198194 0)
(10.0387 -0.020885 0)
(10.0429 -0.0218698 0)
(10.0469 -0.022786 0)
(10.0506 -0.0236451 0)
(10.0541 -0.024454 0)
(10.0574 -0.0252202 0)
(10.0605 -0.0259452 0)
(10.0633 -0.0266385 0)
(10.0002 -0.00219169 0)
(10.0015 -0.00654313 0)
(10.0041 -0.010534 0)
(10.0079 -0.0139141 0)
(10.0124 -0.0166832 0)
(10.0171 -0.0190101 0)
(10.0219 -0.0209957 0)
(10.0268 -0.0226737 0)
(10.0316 -0.0240886 0)
(10.0362 -0.0252974 0)
(10.0407 -0.0263504 0)
(10.045 -0.0272793 0)
(10.049 -0.0281095 0)
(10.0528 -0.0288575 0)
(10.0563 -0.0295405 0)
(10.0596 -0.0301679 0)
(10.0627 -0.0307491 0)
(10.0656 -0.031293 0)
(10.0001 -0.00272616 0)
(10.0015 -0.00828735 0)
(10.0045 -0.0134313 0)
(10.0088 -0.017591 0)
(10.0137 -0.0208396 0)
(10.0187 -0.023515 0)
(10.0238 -0.0257558 0)
(10.0289 -0.0275936 0)
(10.0339 -0.0290895 0)
(10.0388 -0.030321 0)
(10.0434 -0.0313477 0)
(10.0477 -0.0322113 0)
(10.0518 -0.0329454 0)
(10.0557 -0.0335779 0)
(10.0593 -0.0341304 0)
(10.0626 -0.03462 0)
(10.0657 -0.0350563 0)
(10.0686 -0.0354519 0)
(10.0001 -0.0031712 0)
(10.0014 -0.0100021 0)
(10.0048 -0.016315 0)
(10.0099 -0.0211776 0)
(10.0153 -0.0248979 0)
(10.0206 -0.0279208 0)
(10.026 -0.0303413 0)
(10.0314 -0.032226 0)
(10.0367 -0.0337123 0)
(10.0417 -0.0349132 0)
(10.0464 -0.0358888 0)
(10.0509 -0.0366813 0)
(10.0551 -0.0373279 0)
(10.0591 -0.0378639 0)
(10.0627 -0.0383142 0)
(10.0661 -0.0386982 0)
(10.0693 -0.0390277 0)
(10.0723 -0.0393169 0)
(9.99999 -0.00346872 0)
(10.0011 -0.0120434 0)
(10.0051 -0.0193112 0)
(10.0109 -0.0243529 0)
(10.0168 -0.0284488 0)
(10.0226 -0.0320037 0)
(10.0284 -0.0347609 0)
(10.0341 -0.0367436 0)
(10.0396 -0.0381965 0)
(10.0448 -0.0393005 0)
(10.0498 -0.0401394 0)
(10.0544 -0.0407688 0)
(10.0588 -0.0412414 0)
(10.0628 -0.0416015 0)
(10.0666 -0.0418822 0)
(10.0701 -0.042105 0)
(10.0734 -0.042284 0)
(10.0764 -0.0424236 0)
(9.9997 -0.00296633 0)
(10.0004 -0.0150127 0)
(10.0054 -0.0237715 0)
(10.0119 -0.0281049 0)
(10.018 -0.031603 0)
(10.0241 -0.0351595 0)
(10.0306 -0.0381815 0)
(10.0369 -0.040482 0)
(10.0429 -0.0422271 0)
(10.0486 -0.0435583 0)
(10.0539 -0.0445462 0)
(10.0588 -0.0452539 0)
(10.0635 -0.0457468 0)
(10.0678 -0.0460816 0)
(10.0718 -0.0463026 0)
(10.0755 -0.0464413 0)
(10.079 -0.04652 0)
(10.0822 -0.046554 0)
(9.99825 0.000507521 0)
(9.99723 -0.0155081 0)
(10.0046 -0.0288589 0)
(10.0132 -0.03503 0)
(10.0199 -0.0381354 0)
(10.0265 -0.0401737 0)
(10.0337 -0.0415833 0)
(10.0409 -0.0426626 0)
(10.0477 -0.0435843 0)
(10.0541 -0.0443742 0)
(10.0601 -0.0450142 0)
(10.0658 -0.0455215 0)
(10.071 -0.0459201 0)
(10.0758 -0.0462382 0)
(10.0803 -0.0464971 0)
(10.0844 -0.0467145 0)
(10.0882 -0.0468942 0)
(10.0917 -0.0470125 0)
(9.99433 0.00325054 0)
(9.98941 -0.00606643 0)
(10.0008 -0.0208524 0)
(10.0148 -0.0365696 0)
(10.0256 -0.0491349 0)
(10.0352 -0.056681 0)
(10.0445 -0.0604122 0)
(10.0533 -0.0620669 0)
(10.0615 -0.0626478 0)
(10.0691 -0.0625453 0)
(10.0762 -0.0620015 0)
(10.0828 -0.0611873 0)
(10.0889 -0.0602441 0)
(10.0944 -0.0592512 0)
(10.0994 -0.0582804 0)
(10.104 -0.0573645 0)
(10.1082 -0.0565277 0)
(10.112 -0.0557253 0)
(9.99403 -0.0268251 0)
(9.99266 -0.0112415 0)
(10.0051 0.0198921 0)
(10.0222 0.0289939 0)
(10.0406 0.0214043 0)
(10.0592 0.00962536 0)
(10.0766 -0.00138411 0)
(10.0918 -0.0110379 0)
(10.1049 -0.0193014 0)
(10.1161 -0.0261666 0)
(10.1257 -0.0316965 0)
(10.1336 -0.0360991 0)
(10.1401 -0.0395614 0)
(10.1452 -0.0422732 0)
(10.149 -0.0443899 0)
(10.1518 -0.0460639 0)
(10.1536 -0.0474121 0)
(10.1545 -0.0485433 0)
(10.0314 -0.193989 0)
(10.0939 -0.342999 0)
(10.1269 -0.333227 0)
(10.1422 -0.28388 0)
(10.1577 -0.237753 0)
(10.1736 -0.200096 0)
(10.1847 -0.169934 0)
(10.1885 -0.146191 0)
(10.1852 -0.127642 0)
(10.1758 -0.112984 0)
(10.1615 -0.101245 0)
(10.143 -0.0917171 0)
(10.1214 -0.0839204 0)
(10.0973 -0.0774808 0)
(10.0714 -0.07212 0)
(10.0443 -0.0676734 0)
(10.0165 -0.0640106 0)
(9.98862 -0.0613955 0)
(9.93961 0.728863 0)
(9.8704 0.714294 0)
(9.75643 0.510498 0)
(9.59808 0.343343 0)
(9.42119 0.226451 0)
(9.24474 0.147499 0)
(9.07502 0.094485 0)
(8.91457 0.0586191 0)
(8.76512 0.0341695 0)
(8.6275 0.0174855 0)
(8.50153 0.00616711 0)
(8.38658 -0.00143192 0)
(8.28185 -0.00642891 0)
(8.18653 -0.00961379 0)
(8.09966 -0.0115936 0)
(8.02044 -0.012759 0)
(7.94771 -0.0133644 0)
(7.88111 -0.0140275 0)
(0.00523489 -0.00826979 1.36538e-19)
(0.0237385 -0.0279461 3.24752e-19)
(0.0458042 -0.036513 -3.66058e-19)
(0.0688929 -0.0364967 1.72479e-19)
(0.0890377 -0.0309466 1.1304e-19)
(0.104146 -0.0227096 9.01004e-20)
(0.113602 -0.0134626 -1.56622e-19)
(0.117478 -0.00404294 1.74149e-19)
(0.11539 0.00494928 -1.73427e-19)
(0.107644 0.0129421 1.71966e-19)
(0.0951091 0.0196083 1.93902e-19)
(0.0786456 0.0248296 -1.98896e-19)
(0.0590305 0.0286312 -2.33581e-19)
(0.0369208 0.0312854 -3.85599e-20)
(0.0127806 0.0332294 -5.30773e-20)
(-0.0131577 0.0347712 3.22531e-19)
(-0.0408999 0.0359604 2.64987e-19)
(-0.070664 0.037084 1.06754e-19)
(-0.102714 0.0384378 -1.24475e-20)
(-0.137234 0.0401293 -4.95321e-20)
(-0.174441 0.0421017 -5.00662e-20)
(-0.214483 0.0442913 1.51635e-19)
(-0.257395 0.0465856 -1.27786e-19)
(-0.303254 0.0489703 -2.22667e-20)
(-0.351988 0.0513168 1.9231e-20)
(-0.403423 0.0535419 -7.60324e-20)
(-0.457311 0.0555422 -3.06526e-20)
(-0.513337 0.0572597 3.5661e-20)
(-0.57114 0.0586165 -2.59084e-21)
(-0.630301 0.0595866 -6.2556e-20)
(-0.690388 0.0601274 -4.7539e-21)
(-0.750954 0.0602524 -2.36271e-20)
(-0.811582 0.059962 -2.62231e-21)
(-0.871884 0.059304 -5.02821e-22)
(-0.931526 0.0583035 4.77925e-20)
(-0.990216 0.0570273 6.22077e-20)
(-1.04772 0.0555114 -1.41674e-21)
(-1.10385 0.0538279 -1.87997e-20)
(-1.15849 0.0520134 5.36027e-20)
(-1.21155 0.0501323 1.26423e-20)
(-1.26297 0.048208 9.1636e-21)
(-1.31276 0.046293 3.30628e-20)
(-1.36093 0.0443965 -9.36023e-20)
(-1.40751 0.0425547 6.76877e-20)
(-1.45258 0.0407659 -8.15518e-20)
(-1.49618 0.0390588 2.92227e-20)
(-1.53839 0.0374216 -5.08689e-20)
(-1.57927 0.0358731 5.46012e-20)
(-1.6189 0.0343954 3.28436e-20)
(-1.65735 0.0330059 5.46365e-20)
(-1.69469 0.0316838 -4.24306e-20)
(-1.73098 0.0304423 2.23934e-20)
(-1.7663 0.0292587 4.93783e-20)
(-1.80069 0.0281475 -4.89866e-20)
(-1.83422 0.0270849 -4.73475e-20)
(-1.86695 0.0260842 -7.77557e-20)
(-1.89891 0.0251242 6.51758e-20)
(-1.93016 0.0242213 -2.78607e-20)
(-1.96074 0.0233538 1.5466e-20)
(-1.99067 0.0225398 -4.20814e-20)
(-2.02001 0.0217566 4.50571e-20)
(-2.04877 0.0210244 3.16789e-20)
(-2.07701 0.0203208 3.40803e-20)
(-2.10474 0.019668 -6.42881e-20)
(-2.13202 0.0190437 -4.61064e-20)
(-2.15888 0.0184721 -4.39249e-20)
(-2.18535 0.017931 -1.2851e-20)
(-2.21147 0.0174461 -2.95632e-20)
(-2.23727 0.0169943 -2.79176e-20)
(-2.2628 0.0166024 3.95585e-20)
(-2.28809 0.0162453 -5.64255e-20)
(-2.31319 0.015949 5.43052e-21)
(-2.33814 0.0156881 -1.96648e-21)
(-2.36298 0.0154904 -7.72841e-21)
(-2.38775 0.0153298 3.11633e-20)
(-2.41249 0.015234 2.78557e-20)
(-2.43725 0.0151779 3.17036e-20)
(-2.46207 0.0151881 5.36318e-20)
(-2.48697 0.0152411 2.17498e-20)
(-2.512 0.015392 -1.12723e-20)
(-2.5372 0.0156693 2.78551e-20)
(-2.56263 0.0159747 1.24331e-20)
(-2.58829 0.0161443 1.58679e-20)
(-2.61417 0.0164194 -1.26464e-20)
(-2.64027 0.0168777 2.55329e-20)
(-2.66666 0.0173072 -2.62015e-21)
(-2.6933 0.0177188 -6.04111e-20)
(-2.72014 0.0181523 -4.0485e-20)
(-2.74715 0.0185826 -1.74861e-21)
(-2.77429 0.0189553 1.09142e-20)
(-2.80153 0.0192581 6.84215e-21)
(-2.82878 0.019396 7.07486e-21)
(-2.85598 0.0195727 -2.32069e-20)
(-2.88297 0.0191587 3.12732e-20)
(-2.90962 0.0191211 6.17068e-20)
(-2.93604 0.0193347 3.61168e-20)
(-2.96195 0.0185894 4.56358e-20)
(-2.98707 0.0178569 4.80624e-20)
(-3.01119 0.0170941 -4.51266e-20)
(-3.0341 0.0162649 4.60887e-20)
(-3.0556 0.0155772 5.42758e-20)
(-3.07548 0.0148023 1.78245e-20)
(-3.09347 0.0135848 -1.05322e-20)
(-3.10903 0.0114 1.10801e-20)
(-3.12171 0.0102477 2.28812e-20)
(-3.13154 0.00900662 -2.00607e-20)
(-3.13793 0.00764954 -3.70551e-20)
(-3.14134 0.00690438 -3.08041e-20)
(-3.14169 0.00543834 2.85473e-20)
(-3.13879 0.0041518 -3.8467e-20)
(-3.13253 0.00270609 -1.81397e-20)
(-3.12274 0.00109731 3.34163e-22)
(-3.10914 -0.000805989 -1.00069e-20)
(-3.09149 -0.00303499 1.83499e-20)
(-3.06964 -0.00501726 -2.89775e-20)
(-3.04345 -0.00701101 3.37605e-20)
(-3.01283 -0.00908674 2.8226e-20)
(-2.97767 -0.0109803 -3.80816e-20)
(-2.93783 -0.0134761 -4.6405e-22)
(-2.893 -0.0160274 1.85048e-20)
(-2.84339 -0.0183082 -1.74541e-20)
(-2.78876 -0.0210346 3.57241e-20)
(-2.72911 -0.0237452 2.02279e-20)
(-2.66444 -0.0265913 -8.95743e-21)
(-2.59473 -0.0295215 -5.48936e-21)
(-2.52003 -0.0325509 -1.20715e-20)
(-2.44041 -0.0356358 -8.899e-21)
(-2.35596 -0.038786 -1.44065e-20)
(-2.2668 -0.0419563 -1.79879e-20)
(-2.1731 -0.0451444 4.58965e-21)
(-2.07504 -0.0483012 -5.0713e-21)
(-1.97286 -0.0514145 2.70931e-20)
(-1.86684 -0.0544488 3.81625e-20)
(-1.7573 -0.0573891 -6.70681e-21)
(-1.64454 -0.060208 9.18765e-20)
(-1.52886 -0.0628902 7.80795e-21)
(-1.41062 -0.0654128 1.02802e-19)
(-1.2902 -0.0677703 7.87875e-20)
(-1.16797 -0.0699732 1.75728e-19)
(-1.04431 -0.0720179 -2.1781e-19)
(-0.9196 -0.0739318 1.3366e-19)
(-0.794208 -0.0757231 5.53119e-20)
(-0.668504 -0.0774295 -2.64245e-19)
(-0.54284 -0.078995 -4.84103e-19)
(-0.417682 -0.0804123 1.48313e-19)
(-0.292933 -0.081754 4.62996e-19)
(-0.169904 -0.0831816 6.27005e-19)
(-0.0456237 -0.0829123 -5.96451e-19)
(0.0814093 -0.0799819 -8.65084e-20)
(0.205978 -0.0761887 1.39402e-19)
(0.327789 -0.0723048 -2.10513e-19)
(0.446254 -0.068496 1.11709e-19)
(0.561029 -0.0648159 4.23829e-19)
(0.671921 -0.0612702 -4.50706e-19)
(0.778842 -0.0578635 -1.36318e-19)
(0.881735 -0.0546111 -1.89589e-19)
(0.980631 -0.0515328 -4.93274e-19)
(1.07554 -0.048591 -3.24411e-19)
(1.16654 -0.045765 1.13736e-19)
(1.25373 -0.0431007 1.17991e-19)
(1.33719 -0.0405978 1.92161e-19)
(1.41704 -0.0382255 -1.75685e-19)
(1.49335 -0.0359741 -2.51965e-19)
(1.56627 -0.0338415 4.75842e-19)
(1.6359 -0.0318273 -1.57046e-19)
(1.70235 -0.0299164 1.81185e-19)
(1.76571 -0.0281005 2.49396e-19)
(1.82606 -0.0263738 4.05734e-19)
(1.88349 -0.0247294 -7.06929e-20)
(1.93806 -0.0231546 -7.27475e-20)
(1.98981 -0.021637 -4.78541e-19)
(2.03872 -0.0201501 -2.21718e-19)
(2.08467 -0.0186624 -9.13933e-20)
(2.12744 -0.0171116 3.11822e-19)
(2.16656 -0.015418 -4.31521e-19)
(2.20087 -0.013352 -6.77676e-19)
(2.22927 -0.0105168 9.29258e-19)
(2.24401 -0.00517823 -7.37653e-19)
(2.24518 0.00790526 4.4601e-19)
(2.14299 0.0272771 -3.97984e-20)
(0.0155598 -0.0545756 -2.08622e-19)
(0.0366734 -0.0716185 7.37945e-21)
(0.0476996 -0.066468 1.4915e-19)
(0.0553252 -0.0559214 7.7062e-20)
(0.0588811 -0.0423465 -1.64555e-19)
(0.0586004 -0.0271325 -8.18216e-20)
(0.0549425 -0.0113063 -4.37068e-20)
(0.048125 0.00445098 -5.883e-20)
(0.038295 0.0195852 5.42009e-20)
(0.0252954 0.0335556 4.70033e-20)
(0.00891605 0.0459442 5.22417e-20)
(-0.0109271 0.0565964 -5.17654e-20)
(-0.034266 0.0655914 9.35188e-20)
(-0.0611108 0.0732037 -2.10062e-20)
(-0.0914704 0.079824 -7.85426e-20)
(-0.12526 0.0858773 -1.41294e-19)
(-0.162206 0.0917188 -3.73539e-20)
(-0.202091 0.0976269 2.35084e-20)
(-0.244851 0.10376 -1.88851e-20)
(-0.290393 0.11015 9.21598e-20)
(-0.338574 0.116702 -6.1067e-20)
(-0.389203 0.123258 -4.52794e-20)
(-0.442043 0.129616 1.16677e-19)
(-0.496796 0.135578 2.15825e-20)
(-0.553107 0.140927 1.71735e-20)
(-0.61058 0.145488 5.62886e-20)
(-0.668814 0.149112 1.23491e-20)
(-0.727403 0.151717 -4.28941e-20)
(-0.78596 0.153247 -7.15989e-20)
(-0.84412 0.153691 2.72077e-20)
(-0.901563 0.153067 -1.28978e-20)
(-0.958019 0.151466 1.60959e-20)
(-1.01328 0.148994 -1.82938e-20)
(-1.06717 0.145798 -8.07231e-21)
(-1.11959 0.142011 -4.14503e-20)
(-1.17046 0.137782 -1.65761e-20)
(-1.21975 0.133234 -3.42768e-20)
(-1.26746 0.128496 4.03249e-20)
(-1.31359 0.123664 -3.30097e-20)
(-1.35819 0.118839 6.7116e-21)
(-1.4013 0.114079 3.69658e-21)
(-1.44299 0.109451 -7.31535e-20)
(-1.48333 0.104983 2.20453e-20)
(-1.52238 0.100711 4.03355e-20)
(-1.56022 0.0966399 1.07736e-19)
(-1.59692 0.0927915 -4.58606e-20)
(-1.63254 0.0891546 -2.60138e-20)
(-1.66716 0.0857379 6.67845e-21)
(-1.70084 0.0825219 -1.53308e-20)
(-1.73364 0.0795108 2.59411e-20)
(-1.7656 0.0766802 -5.763e-20)
(-1.79678 0.0740303 -3.88978e-20)
(-1.82723 0.0715359 4.43822e-21)
(-1.857 0.0691991 8.04296e-20)
(-1.88612 0.0669946 3.15478e-20)
(-1.91464 0.0649245 5.35445e-20)
(-1.94258 0.0629658 1.43293e-20)
(-1.97 0.0611256 -1.2308e-21)
(-1.99691 0.0593818 7.56005e-21)
(-2.02336 0.0577443 -6.09497e-21)
(-2.04935 0.0561916 2.21417e-20)
(-2.07494 0.0547356 1.56073e-20)
(-2.10014 0.0533554 -4.11457e-20)
(-2.12498 0.0520656 1.34175e-20)
(-2.14949 0.0508461 -1.95187e-20)
(-2.1737 0.0497143 6.48686e-21)
(-2.19765 0.0486506 -4.10307e-20)
(-2.22136 0.0476748 4.31639e-20)
(-2.24487 0.0467671 1.87676e-20)
(-2.2682 0.045948 1.2965e-20)
(-2.29138 0.0451961 8.06572e-20)
(-2.31445 0.0445324 -2.35812e-20)
(-2.33744 0.043934 2.10242e-20)
(-2.36038 0.0434213 1.44912e-20)
(-2.38329 0.042969 3.90932e-20)
(-2.4062 0.0425958 1.41671e-20)
(-2.42913 0.0422741 1.61596e-20)
(-2.45211 0.0420195 -6.24403e-20)
(-2.47515 0.0418049 -3.52839e-20)
(-2.49828 0.0416467 -9.61426e-21)
(-2.5215 0.0415274 1.43279e-20)
(-2.54481 0.0414587 8.69184e-22)
(-2.56821 0.0414068 6.73948e-21)
(-2.59169 0.0413578 -6.06547e-22)
(-2.61524 0.0412978 -2.46787e-20)
(-2.63881 0.0412277 4.82223e-20)
(-2.66238 0.0411193 5.70235e-21)
(-2.68591 0.0409678 4.56646e-20)
(-2.70931 0.0407666 1.9785e-21)
(-2.73252 0.0404922 2.45083e-20)
(-2.75545 0.0401069 3.02786e-20)
(-2.77804 0.0395865 1.20683e-20)
(-2.80014 0.0389022 4.75993e-20)
(-2.82174 0.038063 1.65892e-20)
(-2.84268 0.0370234 -1.07463e-19)
(-2.86272 0.0357678 -3.99283e-20)
(-2.88176 0.034291 -2.48592e-20)
(-2.89965 0.0325521 2.58436e-20)
(-2.91623 0.0305494 -4.72943e-20)
(-2.93133 0.0282577 -6.96196e-20)
(-2.94479 0.0256822 2.94913e-20)
(-2.95645 0.0228252 -2.90212e-20)
(-2.96617 0.0197064 -1.34616e-20)
(-2.97398 0.0163122 -6.58641e-20)
(-2.97983 0.0126464 -1.8423e-20)
(-2.98358 0.00877485 5.4893e-20)
(-2.98533 0.00482157 -1.08925e-20)
(-2.98454 0.000771684 -1.02076e-20)
(-2.98074 -0.0033554 -5.05604e-21)
(-2.97374 -0.00764616 -5.98933e-21)
(-2.96326 -0.0121187 -3.46312e-20)
(-2.94914 -0.0167865 -3.57073e-21)
(-2.93115 -0.0215779 4.58028e-22)
(-2.90919 -0.0265298 1.0335e-20)
(-2.88305 -0.0315819 -1.96271e-20)
(-2.85253 -0.0367575 -4.75837e-20)
(-2.81754 -0.0420332 -6.81789e-21)
(-2.77787 -0.0473833 -1.12219e-20)
(-2.73334 -0.0527012 8.55e-23)
(-2.68403 -0.0580694 -1.49695e-20)
(-2.62973 -0.0634885 1.89125e-22)
(-2.57035 -0.0688845 2.13406e-20)
(-2.5059 -0.074225 1.22915e-20)
(-2.43631 -0.07951 -1.66899e-20)
(-2.36159 -0.0846586 -1.78963e-20)
(-2.28179 -0.0896973 3.43282e-20)
(-2.19695 -0.094565 1.4771e-20)
(-2.10719 -0.0992598 2.73721e-21)
(-2.01263 -0.103726 -2.05501e-21)
(-1.91343 -0.107956 -2.08119e-20)
(-1.8098 -0.111902 -3.41922e-21)
(-1.70198 -0.115552 -1.8012e-21)
(-1.59027 -0.118864 -3.09897e-21)
(-1.47497 -0.121824 -1.41046e-21)
(-1.35641 -0.124403 1.57854e-20)
(-1.23494 -0.126595 1.59189e-20)
(-1.11092 -0.12839 1.93131e-20)
(-0.984775 -0.129791 2.34444e-20)
(-0.856886 -0.130795 1.76147e-20)
(-0.72766 -0.13143 3.22852e-20)
(-0.597513 -0.131729 9.28072e-20)
(-0.466846 -0.131713 -6.43265e-20)
(-0.336025 -0.131434 -7.54532e-20)
(-0.205457 -0.130945 -1.3415e-19)
(-0.0748954 -0.130349 1.40189e-19)
(0.0555837 -0.129781 -2.43971e-20)
(0.18471 -0.129346 1.50103e-19)
(0.310864 -0.127858 2.83847e-19)
(0.433302 -0.124573 -2.01002e-20)
(0.552378 -0.120286 -3.63083e-19)
(0.668536 -0.115576 1.26143e-19)
(0.781633 -0.110692 3.22356e-20)
(0.891478 -0.105754 2.51407e-19)
(0.997922 -0.100841 -1.45031e-19)
(1.10087 -0.0959959 -4.59636e-20)
(1.20026 -0.0912597 -6.66962e-20)
(1.29609 -0.086656 3.15442e-19)
(1.38835 -0.0822057 1.11516e-19)
(1.47708 -0.0779183 4.44948e-20)
(1.56233 -0.0738117 -5.89594e-20)
(1.64414 -0.0698741 9.72877e-20)
(1.72261 -0.0661057 2.24905e-19)
(1.79782 -0.0625072 3.07824e-19)
(1.86987 -0.0590846 -3.42422e-19)
(1.93886 -0.0558255 -7.11757e-20)
(2.00487 -0.0527099 -1.23047e-19)
(2.06798 -0.0497284 -1.74736e-19)
(2.12828 -0.0468774 -4.95631e-20)
(2.18583 -0.0441419 -3.1832e-19)
(2.24068 -0.0415012 -1.78016e-19)
(2.29288 -0.0389243 -2.50153e-19)
(2.34238 -0.0363583 -3.45034e-19)
(2.38909 -0.0337239 -4.98722e-19)
(2.43278 -0.0309014 -3.20212e-19)
(2.47305 -0.0276563 4.1937e-19)
(2.50899 -0.0235972 8.9852e-19)
(2.5398 -0.0176402 -1.19246e-19)
(2.56082 -0.00742242 -4.53508e-20)
(2.58213 0.0136649 2.36834e-19)
(2.57497 0.0526651 -2.08309e-20)
(0.00954788 -0.101154 8.38435e-19)
(0.0218618 -0.0982682 9.66366e-20)
(0.0234948 -0.0772322 1.39549e-20)
(0.0224471 -0.056283 -1.24858e-19)
(0.0178572 -0.0353151 2.12457e-20)
(0.0102756 -0.0142685 3.36523e-20)
(0.000177321 0.00663905 1.88941e-20)
(-0.0122398 0.0271254 5.00572e-20)
(-0.0269768 0.0469255 -3.35163e-20)
(-0.0441339 0.0657711 7.48728e-21)
(-0.0638614 0.0833976 -4.85914e-20)
(-0.0863388 0.0996179 4.76888e-20)
(-0.111745 0.11439 -1.03698e-19)
(-0.140222 0.127831 -7.7439e-21)
(-0.171846 0.140191 -5.69884e-21)
(-0.20659 0.151784 -7.80846e-20)
(-0.244309 0.162902 5.13253e-22)
(-0.284783 0.173733 7.77187e-20)
(-0.32775 0.184351 1.37105e-19)
(-0.372921 0.194713 -6.78824e-20)
(-0.419986 0.204671 2.19488e-20)
(-0.468616 0.214012 -8.83543e-20)
(-0.518475 0.222491 -3.6688e-20)
(-0.569221 0.229867 -7.04927e-20)
(-0.620519 0.235929 1.86547e-20)
(-0.672052 0.240518 -5.38988e-20)
(-0.723532 0.24353 -6.33844e-20)
(-0.774701 0.244928 3.16372e-20)
(-0.825323 0.244732 -3.05058e-20)
(-0.875197 0.243029 -1.44114e-20)
(-0.924187 0.239955 2.62355e-20)
(-0.972193 0.235681 -2.03473e-20)
(-1.01914 0.230397 -6.19356e-22)
(-1.06499 0.224307 -1.12611e-22)
(-1.10971 0.217607 6.33983e-20)
(-1.15327 0.210483 -4.51994e-20)
(-1.1957 0.203098 1.39903e-20)
(-1.23698 0.195597 -4.12527e-20)
(-1.27715 0.188101 -2.31824e-20)
(-1.31621 0.180712 4.21281e-20)
(-1.35421 0.173508 2.29666e-21)
(-1.39117 0.166548 3.73095e-21)
(-1.42712 0.159871 -4.26529e-20)
(-1.46211 0.153503 -9.75701e-20)
(-1.49616 0.147458 -5.26721e-20)
(-1.52932 0.141741 -1.95882e-20)
(-1.56163 0.136346 4.06235e-20)
(-1.59312 0.131269 1.61377e-20)
(-1.62383 0.126493 9.79646e-21)
(-1.65381 0.122007 -4.71189e-20)
(-1.68307 0.117791 2.24406e-20)
(-1.71167 0.113831 1.46516e-20)
(-1.73963 0.110105 -3.58307e-20)
(-1.76699 0.1066 -6.50881e-20)
(-1.79378 0.103298 -2.54183e-20)
(-1.82002 0.100187 1.35918e-20)
(-1.84575 0.0972498 -9.44545e-20)
(-1.871 0.0944801 7.84938e-20)
(-1.89578 0.0918637 -1.86381e-20)
(-1.92013 0.0893962 -8.7073e-22)
(-1.94407 0.0870659 -7.48762e-20)
(-1.96762 0.0848709 9.85201e-21)
(-1.9908 0.0828017 4.9003e-20)
(-2.01364 0.0808589 -2.98296e-20)
(-2.03617 0.0790349 4.78605e-20)
(-2.05841 0.0773326 3.34668e-20)
(-2.08038 0.075746 5.88916e-20)
(-2.10212 0.0742795 -9.6665e-20)
(-2.12364 0.0729272 1.14663e-20)
(-2.14498 0.0716939 1.25933e-20)
(-2.16615 0.0705726 -2.23437e-20)
(-2.18719 0.0695669 4.06643e-20)
(-2.20813 0.0686681 -1.97992e-20)
(-2.22898 0.0678782 -2.50682e-21)
(-2.24977 0.0671856 -1.06696e-19)
(-2.27053 0.0665896 -4.99173e-20)
(-2.29127 0.0660765 2.81915e-20)
(-2.31202 0.0656439 3.42372e-20)
(-2.33279 0.0652783 3.3774e-20)
(-2.35359 0.0649786 -3.67543e-21)
(-2.37443 0.0647324 1.67518e-20)
(-2.39531 0.0645192 -6.05423e-20)
(-2.41622 0.0642972 5.317e-20)
(-2.43718 0.0640579 1.90855e-20)
(-2.45815 0.0637957 -1.26787e-20)
(-2.47911 0.0634801 -6.20628e-20)
(-2.50004 0.063081 3.64214e-21)
(-2.52088 0.0625831 -1.37103e-20)
(-2.54158 0.0619655 -5.84455e-20)
(-2.56206 0.0611973 -5.32431e-20)
(-2.58228 0.0602387 -2.44174e-20)
(-2.60216 0.0590577 -3.70756e-20)
(-2.62161 0.0576323 -3.11047e-20)
(-2.64055 0.0559367 -1.40894e-20)
(-2.65889 0.0539616 9.88637e-20)
(-2.67644 0.0516939 2.60475e-20)
(-2.69312 0.049054 3.61812e-20)
(-2.70881 0.046048 -8.06495e-20)
(-2.72335 0.0426872 8.92172e-20)
(-2.7366 0.0389743 3.2975e-20)
(-2.74841 0.0349236 -1.68558e-20)
(-2.75861 0.0305393 6.44124e-21)
(-2.76707 0.0257877 6.72546e-20)
(-2.7737 0.020656 1.34694e-20)
(-2.77833 0.0152314 -5.29966e-20)
(-2.7807 0.00952896 1.25272e-20)
(-2.78063 0.00351398 7.74524e-20)
(-2.77779 -0.00281066 -1.10715e-20)
(-2.77197 -0.00946609 1.14576e-20)
(-2.76295 -0.0164151 6.84347e-20)
(-2.75052 -0.023673 3.51829e-20)
(-2.73448 -0.0312115 -2.83681e-21)
(-2.71462 -0.0390123 -3.12084e-20)
(-2.69082 -0.0470451 -4.60516e-20)
(-2.66288 -0.0552491 2.9988e-20)
(-2.63065 -0.0636144 -7.3903e-21)
(-2.59395 -0.0721446 1.0479e-20)
(-2.55261 -0.0807613 6.21572e-20)
(-2.50649 -0.0894141 3.34868e-20)
(-2.45561 -0.0980764 7.90178e-21)
(-2.39978 -0.106754 -3.27703e-21)
(-2.33894 -0.115381 -3.39432e-20)
(-2.27305 -0.123908 -4.59504e-20)
(-2.20206 -0.1323 -3.16119e-20)
(-2.12597 -0.140487 3.56981e-20)
(-2.04483 -0.148432 -5.04114e-20)
(-1.95871 -0.156081 -1.76921e-20)
(-1.8677 -0.163386 -8.58492e-21)
(-1.77195 -0.170289 1.75715e-20)
(-1.67163 -0.176741 1.84593e-20)
(-1.56696 -0.182689 7.98031e-21)
(-1.45819 -0.18809 3.15085e-22)
(-1.34562 -0.192895 -5.69922e-21)
(-1.22958 -0.197069 -5.99894e-22)
(-1.11039 -0.200574 -1.67744e-20)
(-0.988435 -0.203391 5.32859e-22)
(-0.864105 -0.205508 1.00121e-20)
(-0.737806 -0.206927 -1.2995e-20)
(-0.609951 -0.207653 -2.11449e-20)
(-0.480954 -0.207724 5.40487e-20)
(-0.351235 -0.207178 -9.28208e-21)
(-0.221204 -0.206076 -6.60573e-20)
(-0.0911107 -0.204522 2.93605e-21)
(0.0387054 -0.202592 7.67837e-20)
(0.167532 -0.200179 1.82368e-20)
(0.294701 -0.197137 -1.49752e-19)
(0.419669 -0.19352 -1.06313e-19)