# vtk DataFile Version 2.0
track0
ASCII
DATASET POLYDATA
POINTS 10809 float
-0.0205 0.001 1e-05
-0.0202034 0.00100023 1e-05
-0.0199069 0.00100077 1e-05
-0.0196103 0.0010015 1e-05
-0.0193137 0.00100243 1e-05
-0.0190172 0.00100355 1e-05
-0.0187132 0.00100513 1e-05
-0.0184093 0.00100627 1e-05
-0.0181054 0.00100736 1e-05
-0.0178015 0.0010084 1e-05
-0.0174976 0.00100941 1e-05
-0.0172058 0.00101071 1e-05
-0.016914 0.00101143 1e-05
-0.0166222 0.00101212 1e-05
-0.0163305 0.00101278 1e-05
-0.0160387 0.00101341 1e-05
-0.0157586 0.00101437 1e-05
-0.0154784 0.00101494 1e-05
-0.0151983 0.00101555 1e-05
-0.0149182 0.0010162 1e-05
-0.0146381 0.00101689 1e-05
-0.0143692 0.00101788 1e-05
-0.0141002 0.00101864 1e-05
-0.0138313 0.00101945 1e-05
-0.0135624 0.00102032 1e-05
-0.0132934 0.00102125 1e-05
-0.0130353 0.00102237 1e-05
-0.0127771 0.00102336 1e-05
-0.0125189 0.0010244 1e-05
-0.0122607 0.00102547 1e-05
-0.0120025 0.00102659 1e-05
-0.0117547 0.0010278 1e-05
-0.0115068 0.00102894 1e-05
-0.0112589 0.00103011 1e-05
-0.0110111 0.00103131 1e-05
-0.0107632 0.00103253 1e-05
-0.0105252 0.00103377 1e-05
-0.0102873 0.001035 1e-05
-0.0100493 0.00103623 1e-05
-0.00981133 0.00103749 1e-05
-0.00957337 0.00103876 1e-05
-0.00951822 0.00103906 1e-05
-0.00946308 0.00103935 1e-05
-0.00940794 0.00103965 1e-05
-0.0093528 0.00103995 1e-05
-0.00929777 0.00104025 1e-05
-0.00912443 0.0010412 1e-05
-0.00895109 0.00104215 1e-05
-0.00877776 0.00104311 1e-05
-0.00860442 0.00104407 1e-05
-0.00843108 0.00104503 1e-05
-0.00821175 0.00104626 1e-05
-0.00799242 0.00104749 1e-05
-0.00777309 0.00104873 1e-05
-0.00755376 0.00104997 1e-05
-0.00733443 0.00105121 1e-05
-0.00712387 0.0010524 1e-05
-0.0069133 0.0010536 1e-05
-0.00670273 0.00105479 1e-05
-0.00649217 0.00105599 1e-05
-0.0062816 0.00105719 1e-05
-0.00607944 0.00105832 1e-05
-0.00587729 0.00105947 1e-05
-0.00567514 0.00106061 1e-05
-0.00547298 0.00106175 1e-05
-0.00527083 0.00106289 1e-05
-0.00507675 0.00106397 1e-05
-0.00488267 0.00106505 1e-05
-0.0046886 0.00106613 1e-05
-0.00449452 0.00106721 1e-05
-0.00430044 0.00106828 1e-05
-0.00411412 0.0010693 1e-05
-0.0039278 0.00107031 1e-05
-0.00374147 0.00107133 1e-05
-0.00355515 0.00107233 1e-05
-0.00336883 0.00107334 1e-05
-0.00318995 0.00107428 1e-05
-0.00301107 0.00107523 1e-05
-0.00283219 0.00107616 1e-05
-0.00265331 0.0010771 1e-05
-0.00247443 0.00107802 1e-05
-0.0023027 0.00107889 1e-05
-0.00213097 0.00107976 1e-05
-0.00195924 0.00108062 1e-05
-0.0017875 0.00108147 1e-05
-0.00161577 0.00108231 1e-05
-0.0014509 0.0010831 1e-05
-0.00128603 0.00108388 1e-05
-0.00112116 0.00108464 1e-05
-0.000956289 0.0010854 1e-05
-0.000791418 0.00108613 1e-05
-0.000633135 0.00108682 1e-05
-0.000474851 0.00108749 1e-05
-0.000316567 0.00108813 1e-05
-0.000158283 0.00108876 1e-05
-7.71603e-21 0.00108936 1e-05
0.000105677 0.00108974 1e-05
0.000211355 0.00109012 1e-05
0.000317032 0.00109048 1e-05
0.00042271 0.00109083 1e-05
0.000528387 0.00109116 1e-05
0.000634886 0.00109148 1e-05
0.000741385 0.0010918 1e-05
0.000847885 0.0010921 1e-05
0.000954384 0.0010924 1e-05
0.00106088 0.00109269 1e-05
0.00116821 0.00109296 1e-05
0.00127554 0.00109324 1e-05
0.00138286 0.0010935 1e-05
0.00149019 0.00109376 1e-05
0.00159752 0.001094 1e-05
0.00170568 0.00109424 1e-05
0.00181384 0.00109447 1e-05
0.001922 0.00109469 1e-05
0.00203016 0.00109491 1e-05
0.00213833 0.00109512 1e-05
0.00224733 0.00109531 1e-05
0.00235633 0.0010955 1e-05
0.00246533 0.00109569 1e-05
0.00257434 0.00109587 1e-05
0.00268334 0.00109605 1e-05
0.00279319 0.00109621 1e-05
0.00290304 0.00109637 1e-05
0.00301289 0.00109653 1e-05
0.00312274 0.00109668 1e-05
0.00323259 0.00109683 1e-05
0.00334329 0.00109696 1e-05
0.003454 0.0010971 1e-05
0.0035647 0.00109724 1e-05
0.0036754 0.00109737 1e-05
0.00378611 0.00109749 1e-05
0.00389767 0.00109761 1e-05
0.00400924 0.00109772 1e-05
0.0041208 0.00109784 1e-05
0.00423237 0.00109795 1e-05
0.00434393 0.00109805 1e-05
0.00445636 0.00109815 1e-05
0.00456879 0.00109824 1e-05
0.00468123 0.00109834 1e-05
0.00479366 0.00109843 1e-05
0.00490609 0.00109851 1e-05
0.0050194 0.00109859 1e-05
0.0051327 0.00109867 1e-05
0.00524601 0.00109874 1e-05
0.00535932 0.00109881 1e-05
0.00547262 0.00109887 1e-05
0.00558681 0.00109893 1e-05
0.005701 0.00109899 1e-05
0.00581518 0.00109904 1e-05
0.00592937 0.00109909 1e-05
0.00604356 0.00109914 1e-05
0.00615863 0.00109917 1e-05
0.00627371 0.00109921 1e-05
0.00638878 0.00109924 1e-05
0.00650386 0.00109927 1e-05
0.00661893 0.0010993 1e-05
0.0067349 0.00109931 1e-05
0.00685087 0.00109933 1e-05
0.00696684 0.00109934 1e-05
0.00708281 0.00109935 1e-05
0.00719878 0.00109935 1e-05
0.00723146 0.00109935 1e-05
0.00726414 0.00109935 1e-05
0.00729682 0.00109934 1e-05
0.0073295 0.00109934 1e-05
0.00736177 0.00109934 1e-05
0.00744604 0.00109933 1e-05
0.00753032 0.00109933 1e-05
0.00761459 0.00109931 1e-05
0.00769886 0.0010993 1e-05
0.00778313 0.00109929 1e-05
0.00790091 0.00109926 1e-05
0.00801869 0.00109923 1e-05
0.00813647 0.00109919 1e-05
0.00825425 0.00109915 1e-05
0.00837203 0.00109911 1e-05
0.00849073 0.00109905 1e-05
0.00860942 0.001099 1e-05
0.00872812 0.00109894 1e-05
0.00884682 0.00109887 1e-05
0.00896551 0.0010988 1e-05
0.00908513 0.00109872 1e-05
0.00920475 0.00109864 1e-05
0.00932437 0.00109856 1e-05
0.00944398 0.00109846 1e-05
0.0095636 0.00109837 1e-05
0.00968415 0.00109826 1e-05
0.0098047 0.00109815 1e-05
0.00992525 0.00109803 1e-05
0.0100458 0.00109792 1e-05
0.0101663 0.00109779 1e-05
0.0102878 0.00109765 1e-05
0.0104093 0.00109751 1e-05
0.0105308 0.00109737 1e-05
0.0106523 0.00109722 1e-05
0.0107738 0.00109707 1e-05
0.0108962 0.00109689 1e-05
0.0110186 0.00109673 1e-05
0.0111411 0.00109656 1e-05
0.0112635 0.00109638 1e-05
0.0113859 0.0010962 1e-05
0.0115093 0.00109599 1e-05
0.0116327 0.00109579 1e-05
0.0117561 0.00109559 1e-05
0.0118795 0.00109538 1e-05
0.0120028 0.00109516 1e-05
0.0121272 0.00109492 1e-05
0.0122515 0.00109469 1e-05
0.0123759 0.00109445 1e-05
0.0125002 0.00109421 1e-05
0.0126245 0.00109396 1e-05
0.0127498 0.00109368 1e-05
0.0128752 0.00109341 1e-05
0.0130005 0.00109314 1e-05
0.0131258 0.00109286 1e-05
0.0132511 0.00109258 1e-05
0.0133774 0.00109226 1e-05
0.0135036 0.00109196 1e-05
0.0136299 0.00109165 1e-05
0.0137562 0.00109134 1e-05
0.0138825 0.00109102 1e-05
0.0140098 0.00109066 1e-05
0.014137 0.00109032 1e-05
0.0142643 0.00108998 1e-05
0.0143915 0.00108962 1e-05
0.0145188 0.00108927 1e-05
0.0146471 0.00108887 1e-05
0.0147753 0.00108849 1e-05
0.0149036 0.00108811 1e-05
0.0150318 0.00108771 1e-05
0.0151601 0.00108731 1e-05
0.0152893 0.00108688 1e-05
0.0154186 0.00108646 1e-05
0.0155478 0.00108603 1e-05
0.0156771 0.0010856 1e-05
0.0158063 0.00108516 1e-05
0.0159366 0.00108468 1e-05
0.0160668 0.00108422 1e-05
0.0161971 0.00108375 1e-05
0.0163274 0.00108327 1e-05
0.0164576 0.00108278 1e-05
0.0165889 0.00108227 1e-05
0.0167201 0.00108176 1e-05
0.0168514 0.00108124 1e-05
0.0169827 0.00108072 1e-05
0.0171139 0.00108019 1e-05
0.0172462 0.00107963 1e-05
0.0173785 0.00107908 1e-05
0.0175108 0.00107851 1e-05
0.0176431 0.00107794 1e-05
0.0177754 0.00107736 1e-05
0.0179087 0.00107676 1e-05
0.018042 0.00107616 1e-05
0.0181753 0.00107555 1e-05
0.0183087 0.00107493 1e-05
0.018442 0.0010743 1e-05
0.0185763 0.00107366 1e-05
0.0187107 0.001073 1e-05
0.018845 0.00107234 1e-05
0.0189794 0.00107167 1e-05
0.0191137 0.001071 1e-05
0.0192491 0.00107031 1e-05
0.0193845 0.00106961 1e-05
0.0195199 0.00106889 1e-05
0.0196553 0.00106817 1e-05
0.0197907 0.00106745 1e-05
0.0199272 0.00106671 1e-05
0.0200636 0.00106596 1e-05
0.0202001 0.0010652 1e-05
0.0203365 0.00106442 1e-05
0.020473 0.00106365 1e-05
0.0206105 0.00106286 1e-05
0.020748 0.00106206 1e-05
0.0208855 0.00106124 1e-05
0.021023 0.00106042 1e-05
0.0211606 0.00105959 1e-05
0.0212991 0.00105876 1e-05
0.0214377 0.00105791 1e-05
0.0215763 0.00105704 1e-05
0.0217149 0.00105615 1e-05
0.0218535 0.00105528 1e-05
0.0219931 0.0010544 1e-05
0.0221328 0.0010535 1e-05
0.0222724 0.00105257 1e-05
0.0224121 0.00105163 1e-05
0.0225517 0.0010507 1e-05
0.0226925 0.00104978 1e-05
0.0228332 0.00104882 1e-05
0.022974 0.00104784 1e-05
0.0231147 0.00104685 1e-05
0.0232555 0.00104587 1e-05
0.0233973 0.00104489 1e-05
0.0235391 0.00104389 1e-05
0.023681 0.00104285 1e-05
0.0238228 0.00104181 1e-05
0.0239647 0.00104078 1e-05
0.0241076 0.00103975 1e-05
0.0242505 0.0010387 1e-05
0.0243935 0.00103761 1e-05
0.0245364 0.00103651 1e-05
0.0246794 0.00103543 1e-05
0.0248234 0.00103436 1e-05
0.0249675 0.00103325 1e-05
0.0251115 0.00103211 1e-05
0.0252556 0.00103095 1e-05
0.0253996 0.00102982 1e-05
0.0255448 0.0010287 1e-05
0.02569 0.00102754 1e-05
0.0258351 0.00102635 1e-05
0.0259803 0.00102514 1e-05
0.0261255 0.00102396 1e-05
0.0262718 0.00102279 1e-05
0.0264181 0.00102158 1e-05
0.0265644 0.00102033 1e-05
0.0267107 0.00101908 1e-05
0.026857 0.00101784 1e-05
0.0270044 0.00101662 1e-05
0.0271519 0.00101536 1e-05
0.0272993 0.00101406 1e-05
0.0274468 0.00101275 1e-05
0.0275942 0.00101146 1e-05
0.0277428 0.00101019 1e-05
0.0278914 0.00100888 1e-05
0.0280399 0.00100752 1e-05
0.0281885 0.00100616 1e-05
0.0283371 0.00100483 1e-05
0.0284869 0.0010035 1e-05
0.0286366 0.00100213 1e-05
0.0287863 0.00100073 1e-05
0.0289361 0.000999317 1e-05
0.0290858 0.000997926 1e-05
0.0292367 0.000996547 1e-05
0.0293876 0.000995128 1e-05
0.0295385 0.000993674 1e-05
0.0296894 0.000992213 1e-05
0.0298403 0.000990769 1e-05
0.0299924 0.000989336 1e-05
0.0301445 0.000987864 1e-05
0.0302966 0.00098636 1e-05
0.0304486 0.00098485 1e-05
0.0306007 0.000983353 1e-05
0.030754 0.000981865 1e-05
0.0309072 0.000980339 1e-05
0.0310605 0.000978785 1e-05
0.0312138 0.000977225 1e-05
0.031367 0.000975673 1e-05
0.0315215 0.000974129 1e-05
0.0316759 0.000972547 1e-05
0.0318304 0.000970942 1e-05
0.0319848 0.000969329 1e-05
0.0321393 0.000967722 1e-05
0.0322949 0.00096612 1e-05
0.0324506 0.000964481 1e-05
0.0326062 0.000962823 1e-05
0.0327619 0.000961157 1e-05
0.0329175 0.000959492 1e-05
0.0330744 0.000957831 1e-05
0.0332313 0.000956133 1e-05
0.0333881 0.00095442 1e-05
0.033545 0.000952699 1e-05
[...]
POINT_DATA 10809
 FIELD attributes 2
p 1 10809 float
-5.13902 -5.14372 -5.13527 -5.12673 -5.11811 -5.1027 -5.10491 -5.11552 -5.12614 -5.13675 -5.17175 -5.18127 -5.21481 -5.24836 -5.2819 -5.32984 -5.33405 -5.36113 -5.38821 -5.41531 -5.45535 -5.4665 -5.49254 -5.5186 -5.54467 -5.58028 -5.59915 -5.62565 -5.65216 -5.67868 -5.70993 -5.72967 -5.75297 -5.77628 -5.79959 -5.82468 -5.8427 -5.86218 -5.88166 -5.90114 -5.92088 -5.92481 -5.92894 -5.93308 -5.93722 -5.94135 -5.95437 -5.96738 -5.9804 -5.99342 -6.006 -6.02216 -6.03803 -6.05391 -6.06978 -6.08488 -6.10034 -6.11529 -6.13023 -6.14517 -6.15917 -6.17403 -6.18825 -6.20248 -6.21671 -6.22993 -6.24439 -6.25819 -6.272 -6.28581 -6.29864 -6.31295 -6.32667 -6.3404 -6.35412 -6.36694 -6.38133 -6.39525 -6.40917 -6.42309 -6.43614 -6.45088 -6.46538 -6.47988 -6.49438 -6.50799 -6.52302 -6.53799 -6.55297 -6.56794 -6.58165 -6.59458 -6.60684 -6.61911 -6.63137 -6.64181 -6.64833 -6.65323 -6.65813 -6.66303 -6.66678 -6.66866 -6.66863 -6.6686 -6.66857 -6.66801 -6.66929 -6.66966 -6.67003 -6.6704 -6.67063 -6.6743 -6.67647 -6.67864 -6.68081 -6.68181 -6.68608 -6.68795 -6.68983 -6.6917 -6.69156 -6.69507 -6.69625 -6.69744 -6.69862 -6.69775 -6.70069 -6.70179 -6.7029 -6.704 -6.7034 -6.70587 -6.70698 -6.70809 -6.7092 -6.70902 -6.71087 -6.71175 -6.71263 -6.71352 -6.71355 -6.71473 -6.7153 -6.71587 -6.71644 -6.71652 -6.7172 -6.71754 -6.71788 -6.71822 -6.71833 -6.71869 -6.71889 -6.71909 -6.71929 -6.71941 -6.71959 -6.71971 -6.71982 -6.71994 -6.72005 -6.72008 -6.72011 -6.72013 -6.72015 -6.72018 -6.72024 -6.72031 -6.72037 -6.72043 -6.72048 -6.7206 -6.72072 -6.72084 -6.72095 -6.72108 -6.72121 -6.7214 -6.72159 -6.72178 -6.72211 -6.72217 -6.72245 -6.72274 -6.72302 -6.72367 -6.72356 -6.72394 -6.72433 -6.72471 -6.7258 -6.72543 -6.72592 -6.72642 -6.72691 -6.72856 -6.72786 -6.72848 -6.7291 -6.72972 -6.73202 -6.73093 -6.73169 -6.73244 -6.7332 -6.73619 -6.7347 -6.73559 -6.73648 -6.73737 -6.7411 -6.73918 -6.74021 -6.74123 -6.74226 -6.74673 -6.74441 -6.74562 -6.74682 -6.74802 -6.75327 -6.75067 -6.75206 -6.75345 -6.75484 -6.76076 -6.75793 -6.75947 -6.76101 -6.76255 -6.76902 -6.766 -6.76769 -6.76938 -6.77106 -6.77805 -6.77497 -6.77684 -6.77871 -6.78082 -6.788 -6.78543 -6.78712 -6.78917 -6.79187 -6.79889 -6.79688 -6.79838 -6.8006 -6.80382 -6.81057 -6.80914 -6.81051 -6.81289 -6.81654 -6.82301 -6.82217 -6.82348 -6.82602 -6.83003 -6.83621 -6.83596 -6.83731 -6.84001 -6.84429 -6.85016 -6.8505 -6.85195 -6.8548 -6.85927 -6.86483 -6.86574 -6.86735 -6.87036 -6.87494 -6.8802 -6.88165 -6.88348 -6.88663 -6.89126 -6.89624 -6.89819 -6.9003 -6.90359 -6.9082 -6.91295 -6.91535 -6.91777 -6.92122 -6.92575 -6.93028 -6.93311 -6.93593 -6.93951 -6.94387 -6.94823 -6.95142 -6.9546 -6.95831 -6.96253 -6.96676 -6.97026 -6.97377 -6.97759 -6.98172 -6.98585 -6.98962 -6.9934 -6.99733 -7.0014 -7.00547 -7.00948 -7.01348 -7.01751 -7.02157 -7.02562 -7.02983 -7.03404 -7.03817 -7.04223 -7.04628 -7.05069 -7.0551 -7.05931 -7.06337 -7.06742 -7.07198 -7.07655 -7.08083 -7.08489 -7.08894 -7.0936 -7.09824 -7.10259 -7.1067 -7.11078 -7.1155 -7.12015 -7.12457 -7.12877 -7.1329 -7.13765 -7.14231 -7.14677 -7.15106 -7.15526 -7.16003 -7.16467 -7.16917 -7.17356 -7.17782 -7.18259 -7.18722 -7.19176 -7.19623 -7.20055 -7.20531 -7.20992 -7.21449 -7.21902 -7.2234 -7.22814 -7.23273 -7.23731 -7.24189 -7.24631 -7.25101 -7.2556 -7.26018 -7.26477 -7.26924 -7.27389 -7.27846 -7.28304 -7.28762 -7.29212 -7.29672 -7.30127 -7.30583 -7.31039 -7.31489 -7.31944 -7.32396 -7.32848 -7.333 -7.3375 -7.34198 -7.34645 -7.35092 -7.3554 -7.35985 -7.36426 -7.36867 -7.37308 -7.37748 -7.38189 -7.38361 -7.38534 -7.38707 -7.38879 -7.39049 -7.3931 -7.39571 -7.39832 -7.40093 -7.40354 -7.40778 -7.41201 -7.41624 -7.42047 -7.42469 -7.42884 -7.43295 -7.43707 -7.44118 -7.44527 -7.44931 -7.45329 -7.45728 -7.46126 -7.4652 -7.46912 -7.47295 -7.47679 -7.48062 -7.48438 -7.48817 -7.49182 -7.49548 -7.49913 -7.50267 -7.5063 -7.50975 -7.5132 -7.51662 -7.51994 -7.52336 -7.52663 -7.52985 -7.53302 -7.5361 -7.53929 -7.54237 -7.54534 -7.54822 -7.55102 -7.55395 -7.55682 -7.55951 -7.56205 -7.56456 -7.5672 -7.56983 -7.57221 -7.57439 -7.57656 -7.57889 -7.58122 -7.58327 -7.58509 -7.5869 -7.58889 -7.59088 -7.59258 -7.59401 -7.59543 -7.59705 -7.59866 -7.59999 -7.601 -7.60201 -7.60322 -7.60443 -7.60535 -7.60591 -7.60647 -7.60724 -7.60799 -7.60845 -7.60859 -7.60866 -7.60897 -7.60917 -7.60914 -7.60887 -7.60843 -7.60823 -7.60783 -7.60728 -7.60658 -7.60561 -7.60488 -7.60383 -7.60271 -7.60158 -7.60002 -7.59869 -7.59698 -7.59527 -7.59356 -7.59151 -7.58946 -7.58711 -7.58477 -7.58244 -7.57988 -7.57706 -7.57406 -7.57106 -7.56806 -7.56499 -7.56337 -7.56168 -7.55999 -7.55831 -7.55668 -7.55469 -7.55271 -7.55073 -7.54875 -7.54673 -7.54242 -7.53807 -7.53372 -7.52937 -7.52493 -7.51995 -7.51484 -7.50974 -7.50463 -7.49935 -7.4937 -7.48779 -7.4819 -7.47598 -7.46983 -7.46339 -7.45675 -7.45002 -7.44319 -7.4362 -7.42892 -7.42153 -7.41396 -7.40616 -7.3983 -7.39013 -7.38198 -7.37349 -7.36472 -7.35595 -7.34688 -7.33781 -7.32843 -7.31871 -7.30901 -7.29899 -7.28899 -7.27866 -7.26798 -7.2573 -7.24632 -7.23526 -7.22392 -7.21236 -7.20068 -7.1887 -7.17649 -7.16413 -7.1517 -7.139 -7.12599 -7.11258 -7.09917 -7.08577 -7.07211 -7.05787 -7.04339 -7.02891 -7.01443 -6.99988 -6.99332 -6.98668 -6.98004 -6.9734 -6.96697 -6.958 -6.94904 -6.94007 -6.93111 -6.92208 -6.90547 -6.88879 -6.87212 -6.85546 -6.83861 -6.82098 -6.80317 -6.78536 -6.76755 -6.74942 -6.73071 -6.71181 -6.69285 -6.67373 -6.65443 -6.63454 -6.61461 -6.59447 -6.57401 -6.55352 -6.53245 -6.51138 -6.49001 -6.46831 -6.44661 -6.42433 -6.40207 -6.37945 -6.35654 -6.33363 -6.31014 -6.28654 -6.26266 -6.23864 -6.21451 -6.1898 -6.16477 -6.13965 -6.11454 -6.08919 -6.06314 -6.03677 -6.01042 -5.98407 -5.95765 -5.94575 -5.93376 -5.92177 -5.90978 -5.89815 -5.88252 -5.86689 -5.85126 -5.83564 -5.81984 -5.79122 -5.76246 -5.73372 -5.70498 -5.67573 -5.64611 -5.61613 -5.58614 -5.55595 -5.52534 -5.49447 -5.4635 -5.43228 -5.4005 -5.36865 -5.33654 -5.30444 -5.27186 -5.23877 -5.20568 -5.17233 -5.139 -5.10503 -5.07077 -5.03645 -5.00188 -4.96694 -4.93175 -4.89654 -4.86101 -4.82511 -4.7887 -4.75229 -4.7159 -4.67941 -4.66727 -4.65499 -4.64272 -4.63045 -4.61843 -4.59312 -4.56782 -4.54252 -4.51723 -4.49165 -4.45315 -4.41449 -4.37583 -4.33717 -4.29782 -4.25832 -4.21863 -4.17882 -4.13857 -4.09809 -4.05744 -4.0168 -3.97573 -3.93414 -3.89254 -3.85077 -3.80901 -3.76662 -3.72399 -3.6813 -3.63844 -3.59517 -3.55169 -3.50822 -3.4645 -3.4228 -3.3807 -3.3386 -3.29652 -3.25679 -3.25389 -3.25099 -3.24809 -3.24519 -3.24226 -3.19682 -3.15137 -3.10593 -3.0605 -3.01456 -2.96837 -2.92195 -2.87554 -2.82884 -2.78177 -2.73462 -2.68747 -2.64002 -2.59206 -2.54408 -2.496 -2.44794 -2.39933 -2.35052 -2.30167 -2.25271 -2.20337 -2.15386 -2.10436 -2.05472 -2.02057 -1.98613 -1.95171 -1.91728 -1.88417 -1.86804 -1.8519 -1.83577 -1.81963 -1.80335 -1.75237 -1.70133 -1.65031 -1.59928 -1.54768 -1.49604 -1.44435 -1.3926 -1.34043 -1.28814 -1.2358 -1.18347 -1.13081 -1.0779 -1.02497 -0.971981 -0.918787 -0.865357 -0.811933 -0.758387 -0.715218 -0.671764 -0.628316 -0.584875 -0.54327 -0.53234 -0.52141 -0.51048 -0.499551 -0.488539 -0.434023 -0.379499 -0.324984 -0.270469 -0.215511 -0.160537 -0.105562 -0.0505851 0.00470959 0.0600776 0.115477 0.170865 0.226497 0.282194 0.337929 0.393701 0.44966 0.505704 0.561739 0.6178 0.642455 0.667209 0.691962 0.716713 0.740924 0.772642 0.804357 0.83607 0.867779 0.899653 0.956311 1.01294 1.06955 1.12627 1.18317 1.24006 1.29693 1.35384 1.41085 1.46791 1.52496 1.58206 1.63925 1.69643 1.75358 1.79383 1.83415 1.87447 1.91478 1.95378 1.97102 1.98826 2.0055 2.02274 2.04002 2.09745 2.15483 2.2122 2.26958 2.32708 2.38456 2.44203 2.4994 2.55678 2.61421 2.67163 2.72905 2.78646 2.84383 2.90114 2.93887 2.97657 3.01427 3.05196 3.08859 3.10842 3.12824 3.14807 3.16789 3.1877 3.24504 3.30224 3.35944 3.4166 3.47373 3.53091 3.58809 3.64507 3.70187 3.75873 3.81564 3.87244 3.92915 3.98585 4.04245 4.06268 4.08284 4.10299 4.12315 4.14302 4.17942 4.21582 4.25221 4.28861 4.32495 4.38133 4.43752 4.49369 4.54975 4.60581 4.66176 4.71771 4.77349 4.82901 4.88459 4.94007 4.99536 5.05059 5.10582 5.16106 5.16589 5.17069 5.17549 5.18029 5.18508 5.23519 5.2853 5.33541 5.38548 5.43541 5.48999 5.54452 5.59882 5.65289 5.70702 5.76098 5.81486 5.86851 5.92214 5.9756 6.00215 6.02855 6.05492 6.08129 6.10731 6.13414 6.16096 6.18778 6.21457 6.24123 6.29404 6.34662 6.39918 6.45144 6.50366 6.55574 6.60781 6.65948 6.71099 6.76243 6.79708 6.8315 6.86585 6.9002 6.93416 6.95086 6.96757 6.98427 7.00094 7.01751 7.06811 7.11849 7.16888 7.21897 7.26891 7.31872 7.36852 7.41789 7.467 7.51606 7.55001 7.58369 7.61728 7.65088 7.68434 7.6993 7.71426 7.72923 7.74415 7.75896 7.80705 7.85493 7.9028 7.95033 7.99768 8.04488 8.09209 8.13878 8.18526 8.23163 8.26031 8.28874 8.31707 8.3454 8.37388 8.39134 8.4088 8.42626 8.44365 8.4609 8.50625 8.55132 8.59639 8.64103 8.68551 8.72983 8.77412 8.81785 8.86148 8.9049 8.92743 8.94973 8.97194 8.99416 9.01666 9.03725 9.05785 9.07845 9.09897 9.11928 9.16158 9.20367 9.24568 9.28718 9.32857 9.36977 9.41087 9.45148 9.49203 9.5323 9.55094 9.56937 9.58774 9.6061 9.62484 9.6461 9.66736 9.68862 9.70981 9.73075 9.76981 9.80867 9.84743 9.88567 9.92381 9.9617 9.99952 10.0368 10.0741 10.111 10.1309 10.1505 10.1701 10.1896 10.2099 10.2265 10.2431 10.2598 10.2763 10.2927 10.3284 10.3638 10.3991 10.4341 10.4689 10.5033 10.5378 10.5718 10.6055 10.639 10.6683 10.6971 10.7258 10.7545 10.7858 10.7893 10.7928 10.7963 10.7998 10.8032 10.8352 10.8671 10.899 10.9308 10.9623 10.9934 11.0245 11.0548 11.0844 11.1139 11.1431 11.1725 11.2026 11.2328 11.2632 11.2884 11.3082 11.328 11.3478 11.3716 11.3745 11.3774 11.3803 11.3832 11.3855 11.4107 11.437 11.4634 11.4897 11.5266 11.5635 11.5975 11.6231 11.6318 11.6405 11.6485 11.6585 11.6725 11.6863 11.7023 11.7077 11.7127 11.7176 11.7225 11.7276 11.7379 11.7482 11.7585 11.7686 11.7781 11.7918 11.8048 11.817 11.8272 11.8374 11.8465 11.8554 11.8629 11.8701 11.8764 11.8797 11.8819 11.884 11.8861 11.8884 11.8899 11.8914 11.8929 11.8944 11.8953 11.896 11.8956 11.8952 11.8939 11.8915 11.8872 11.883 11.8766 11.8682 11.8598 11.8494 11.8377 11.8246 11.8114 11.7963 11.7857 11.7733 11.7609 11.7485 11.7341 11.7269 11.7197 11.7125 11.7053 11.6972 11.6713 11.6441 11.6168 11.5887 11.5581 11.5244 11.4901 11.4532 11.4128 11.3724 11.3285 11.2845 11.2369 11.1855 11.1339 11.0785 11.0202 10.96 10.8998 10.8362 10.7735 10.7071 10.6408 10.5743 10.4878 10.4846 10.4815 10.4783 10.4751 10.4718 10.3855 10.2989 10.2122 10.1254 10.0349 9.93652 9.83283 9.72903 9.62322 9.51215 9.39507 9.2762 9.15402 9.02694 8.8988 8.76416 8.62946 8.48325 8.32617 8.16894 8.00424 7.83948 7.67355 7.50632 7.33898 7.16393 6.979 6.77161 6.55024 6.3159 6.0714 5.85058 5.63877 5.42829 5.24391 5.03757 4.71372 4.3905 4.06787 3.68094 3.34232 3.12009 2.89942 2.68029 2.49276 2.4172 2.27334 2.12919 1.98474 1.87884 1.54711 1.21857 0.893181 0.57088 0