# vtk DataFile Version 2.0
track0
ASCII
DATASET POLYDATA
POINTS 10809 float
-0.0205 0.001 1e-05
-0.0202034 0.00100023 1e-05
-0.0199069 0.00100077 1e-05
-0.0196103 0.0010015 1e-05
-0.0193137 0.00100243 1e-05
-0.0190172 0.00100355 1e-05
-0.0187132 0.00100513 1e-05
-0.0184093 0.00100627 1e-05
-0.0181054 0.00100736 1e-05
-0.0178015 0.0010084 1e-05
-0.0174976 0.00100941 1e-05
-0.0172058 0.00101071 1e-05
-0.016914 0.00101143 1e-05
-0.0166222 0.00101212 1e-05
-0.0163305 0.00101278 1e-05
-0.0160387 0.00101341 1e-05
-0.0157586 0.00101437 1e-05
-0.0154784 0.00101494 1e-05
-0.0151983 0.00101555 1e-05
-0.0149182 0.0010162 1e-05
-0.0146381 0.00101689 1e-05
-0.0143692 0.00101788 1e-05
-0.0141002 0.00101864 1e-05
-0.0138313 0.00101945 1e-05
-0.0135624 0.00102032 1e-05
-0.0132934 0.00102125 1e-05
-0.0130353 0.00102237 1e-05
-0.0127771 0.00102336 1e-05
-0.0125189 0.0010244 1e-05
-0.0122607 0.00102547 1e-05
-0.0120025 0.00102659 1e-05
-0.0117547 0.0010278 1e-05
-0.0115068 0.00102894 1e-05
-0.0112589 0.00103011 1e-05
-0.0110111 0.00103131 1e-05
-0.0107632 0.00103253 1e-05
-0.0105252 0.00103377 1e-05
-0.0102873 0.001035 1e-05
-0.0100493 0.00103623 1e-05
-0.00981133 0.00103749 1e-05
-0.00957337 0.00103876 1e-05
-0.00951822 0.00103906 1e-05
-0.00946308 0.00103935 1e-05
-0.00940794 0.00103965 1e-05
-0.0093528 0.00103995 1e-05
-0.00929777 0.00104025 1e-05
-0.00912443 0.0010412 1e-05
-0.00895109 0.00104215 1e-05
-0.00877776 0.00104311 1e-05
-0.00860442 0.00104407 1e-05
-0.00843108 0.00104503 1e-05
-0.00821175 0.00104626 1e-05
-0.00799242 0.00104749 1e-05
-0.00777309 0.00104873 1e-05
-0.00755376 0.00104997 1e-05
-0.00733443 0.00105121 1e-05
-0.00712387 0.0010524 1e-05
-0.0069133 0.0010536 1e-05
-0.00670273 0.00105479 1e-05
-0.00649217 0.00105599 1e-05
-0.0062816 0.00105719 1e-05
-0.00607944 0.00105832 1e-05
-0.00587729 0.00105947 1e-05
-0.00567514 0.00106061 1e-05
-0.00547298 0.00106175 1e-05
-0.00527083 0.00106289 1e-05
-0.00507675 0.00106397 1e-05
-0.00488267 0.00106505 1e-05
-0.0046886 0.00106613 1e-05
-0.00449452 0.00106721 1e-05
-0.00430044 0.00106828 1e-05
-0.00411412 0.0010693 1e-05
-0.0039278 0.00107031 1e-05
-0.00374147 0.00107133 1e-05
-0.00355515 0.00107233 1e-05
-0.00336883 0.00107334 1e-05
-0.00318995 0.00107428 1e-05
-0.00301107 0.00107523 1e-05
-0.00283219 0.00107616 1e-05
-0.00265331 0.0010771 1e-05
-0.00247443 0.00107802 1e-05
-0.0023027 0.00107889 1e-05
-0.00213097 0.00107976 1e-05
-0.00195924 0.00108062 1e-05
-0.0017875 0.00108147 1e-05
-0.00161577 0.00108231 1e-05
-0.0014509 0.0010831 1e-05
-0.00128603 0.00108388 1e-05
-0.00112116 0.00108464 1e-05
-0.000956289 0.0010854 1e-05
-0.000791418 0.00108613 1e-05
-0.000633135 0.00108682 1e-05
-0.000474851 0.00108749 1e-05
-0.000316567 0.00108813 1e-05
-0.000158283 0.00108876 1e-05
-7.71603e-21 0.00108936 1e-05
0.000105677 0.00108974 1e-05
0.000211355 0.00109012 1e-05
0.000317032 0.00109048 1e-05
0.00042271 0.00109083 1e-05
0.000528387 0.00109116 1e-05
0.000634886 0.00109148 1e-05
0.000741385 0.0010918 1e-05
0.000847885 0.0010921 1e-05
0.000954384 0.0010924 1e-05
0.00106088 0.00109269 1e-05
0.00116821 0.00109296 1e-05
0.00127554 0.00109324 1e-05
0.00138286 0.0010935 1e-05
0.00149019 0.00109376 1e-05
0.00159752 0.001094 1e-05
0.00170568 0.00109424 1e-05
0.00181384 0.00109447 1e-05
0.001922 0.00109469 1e-05
0.00203016 0.00109491 1e-05
0.00213833 0.00109512 1e-05
0.00224733 0.00109531 1e-05
0.00235633 0.0010955 1e-05
0.00246533 0.00109569 1e-05
0.00257434 0.00109587 1e-05
0.00268334 0.00109605 1e-05
0.00279319 0.00109621 1e-05
0.00290304 0.00109637 1e-05
0.00301289 0.00109653 1e-05
0.00312274 0.00109668 1e-05
0.00323259 0.00109683 1e-05
0.00334329 0.00109696 1e-05
0.003454 0.0010971 1e-05
0.0035647 0.00109724 1e-05
0.0036754 0.00109737 1e-05
0.00378611 0.00109749 1e-05
0.00389767 0.00109761 1e-05
0.00400924 0.00109772 1e-05
0.0041208 0.00109784 1e-05
0.00423237 0.00109795 1e-05
0.00434393 0.00109805 1e-05
0.00445636 0.00109815 1e-05
0.00456879 0.00109824 1e-05
0.00468123 0.00109834 1e-05
0.00479366 0.00109843 1e-05
0.00490609 0.00109851 1e-05
0.0050194 0.00109859 1e-05
0.0051327 0.00109867 1e-05
0.00524601 0.00109874 1e-05
0.00535932 0.00109881 1e-05
0.00547262 0.00109887 1e-05
0.00558681 0.00109893 1e-05
0.005701 0.00109899 1e-05
0.00581518 0.00109904 1e-05
0.00592937 0.00109909 1e-05
0.00604356 0.00109914 1e-05
0.00615863 0.00109917 1e-05
0.00627371 0.00109921 1e-05
0.00638878 0.00109924 1e-05
0.00650386 0.00109927 1e-05
0.00661893 0.0010993 1e-05
0.0067349 0.00109931 1e-05
0.00685087 0.00109933 1e-05
0.00696684 0.00109934 1e-05
0.00708281 0.00109935 1e-05
0.00719878 0.00109935 1e-05
0.00723146 0.00109935 1e-05
0.00726414 0.00109935 1e-05
0.00729682 0.00109934 1e-05
0.0073295 0.00109934 1e-05
0.00736177 0.00109934 1e-05
0.00744604 0.00109933 1e-05
0.00753032 0.00109933 1e-05
0.00761459 0.00109931 1e-05
0.00769886 0.0010993 1e-05
0.00778313 0.00109929 1e-05
0.00790091 0.00109926 1e-05
0.00801869 0.00109923 1e-05
0.00813647 0.00109919 1e-05
0.00825425 0.00109915 1e-05
0.00837203 0.00109911 1e-05
0.00849073 0.00109905 1e-05
0.00860942 0.001099 1e-05
0.00872812 0.00109894 1e-05
0.00884682 0.00109887 1e-05
0.00896551 0.0010988 1e-05
0.00908513 0.00109872 1e-05
0.00920475 0.00109864 1e-05
0.00932437 0.00109856 1e-05
0.00944398 0.00109846 1e-05
0.0095636 0.00109837 1e-05
0.00968415 0.00109826 1e-05
0.0098047 0.00109815 1e-05
0.00992525 0.00109803 1e-05
0.0100458 0.00109792 1e-05
0.0101663 0.00109779 1e-05
0.0102878 0.00109765 1e-05
0.0104093 0.00109751 1e-05
0.0105308 0.00109737 1e-05
0.0106523 0.00109722 1e-05
0.0107738 0.00109707 1e-05
0.0108962 0.00109689 1e-05
0.0110186 0.00109673 1e-05
0.0111411 0.00109656 1e-05
0.0112635 0.00109638 1e-05
0.0113859 0.0010962 1e-05
0.0115093 0.00109599 1e-05
0.0116327 0.00109579 1e-05
0.0117561 0.00109559 1e-05
0.0118795 0.00109538 1e-05
0.0120028 0.00109516 1e-05
0.0121272 0.00109492 1e-05
0.0122515 0.00109469 1e-05
0.0123759 0.00109445 1e-05
0.0125002 0.00109421 1e-05
0.0126245 0.00109396 1e-05
0.0127498 0.00109368 1e-05
0.0128752 0.00109341 1e-05
0.0130005 0.00109314 1e-05
0.0131258 0.00109286 1e-05
0.0132511 0.00109258 1e-05
0.0133774 0.00109226 1e-05
0.0135036 0.00109196 1e-05
0.0136299 0.00109165 1e-05
0.0137562 0.00109134 1e-05
0.0138825 0.00109102 1e-05
0.0140098 0.00109066 1e-05
0.014137 0.00109032 1e-05
0.0142643 0.00108998 1e-05
0.0143915 0.00108962 1e-05
0.0145188 0.00108927 1e-05
0.0146471 0.00108887 1e-05
0.0147753 0.00108849 1e-05
0.0149036 0.00108811 1e-05
0.0150318 0.00108771 1e-05
0.0151601 0.00108731 1e-05
0.0152893 0.00108688 1e-05
0.0154186 0.00108646 1e-05
0.0155478 0.00108603 1e-05
0.0156771 0.0010856 1e-05
0.0158063 0.00108516 1e-05
0.0159366 0.00108468 1e-05
0.0160668 0.00108422 1e-05
0.0161971 0.00108375 1e-05
0.0163274 0.00108327 1e-05
0.0164576 0.00108278 1e-05
0.0165889 0.00108227 1e-05
0.0167201 0.00108176 1e-05
0.0168514 0.00108124 1e-05
0.0169827 0.00108072 1e-05
0.0171139 0.00108019 1e-05
0.0172462 0.00107963 1e-05
0.0173785 0.00107908 1e-05
0.0175108 0.00107851 1e-05
0.0176431 0.00107794 1e-05
0.0177754 0.00107736 1e-05
0.0179087 0.00107676 1e-05
0.018042 0.00107616 1e-05
0.0181753 0.00107555 1e-05
0.0183087 0.00107493 1e-05
0.018442 0.0010743 1e-05
0.0185763 0.00107366 1e-05
0.0187107 0.001073 1e-05
0.018845 0.00107234 1e-05
0.0189794 0.00107167 1e-05
0.0191137 0.001071 1e-05
0.0192491 0.00107031 1e-05
0.0193845 0.00106961 1e-05
0.0195199 0.00106889 1e-05
0.0196553 0.00106817 1e-05
0.0197907 0.00106745 1e-05
0.0199272 0.00106671 1e-05
0.0200636 0.00106596 1e-05
0.0202001 0.0010652 1e-05
0.0203365 0.00106442 1e-05
0.020473 0.00106365 1e-05
0.0206105 0.00106286 1e-05
0.020748 0.00106206 1e-05
0.0208855 0.00106124 1e-05
0.021023 0.00106042 1e-05
0.0211606 0.00105959 1e-05
0.0212991 0.00105876 1e-05
0.0214377 0.00105791 1e-05
0.0215763 0.00105704 1e-05
0.0217149 0.00105615 1e-05
0.0218535 0.00105528 1e-05
0.0219931 0.0010544 1e-05
0.0221328 0.0010535 1e-05
0.0222724 0.00105257 1e-05
0.0224121 0.00105163 1e-05
0.0225517 0.0010507 1e-05
0.0226925 0.00104978 1e-05
0.0228332 0.00104882 1e-05
0.022974 0.00104784 1e-05
0.0231147 0.00104685 1e-05
0.0232555 0.00104587 1e-05
0.0233973 0.00104489 1e-05
0.0235391 0.00104389 1e-05
0.023681 0.00104285 1e-05
0.0238228 0.00104181 1e-05
0.0239647 0.00104078 1e-05
0.0241076 0.00103975 1e-05
0.0242505 0.0010387 1e-05
0.0243935 0.00103761 1e-05
0.0245364 0.00103651 1e-05
0.0246794 0.00103543 1e-05
0.0248234 0.00103436 1e-05
0.0249675 0.00103325 1e-05
0.0251115 0.00103211 1e-05
0.0252556 0.00103095 1e-05
0.0253996 0.00102982 1e-05
0.0255448 0.0010287 1e-05
0.02569 0.00102754 1e-05
0.0258351 0.00102635 1e-05
0.0259803 0.00102514 1e-05
0.0261255 0.00102396 1e-05
0.0262718 0.00102279 1e-05
0.0264181 0.00102158 1e-05
0.0265644 0.00102033 1e-05
0.0267107 0.00101908 1e-05
0.026857 0.00101784 1e-05
0.0270044 0.00101662 1e-05
0.0271519 0.00101536 1e-05
0.0272993 0.00101406 1e-05
0.0274468 0.00101275 1e-05
0.0275942 0.00101146 1e-05
0.0277428 0.00101019 1e-05
0.0278914 0.00100888 1e-05
0.0280399 0.00100752 1e-05
0.0281885 0.00100616 1e-05
0.0283371 0.00100483 1e-05
0.0284869 0.0010035 1e-05
0.0286366 0.00100213 1e-05
0.0287863 0.00100073 1e-05
0.0289361 0.000999317 1e-05
0.0290858 0.000997926 1e-05
0.0292367 0.000996547 1e-05
0.0293876 0.000995128 1e-05
0.0295385 0.000993674 1e-05
0.0296894 0.000992213 1e-05
0.0298403 0.000990769 1e-05
0.0299924 0.000989336 1e-05
0.0301445 0.000987864 1e-05
0.0302966 0.00098636 1e-05
0.0304486 0.00098485 1e-05
0.0306007 0.000983353 1e-05
0.030754 0.000981865 1e-05
0.0309072 0.000980339 1e-05
0.0310605 0.000978785 1e-05
0.0312138 0.000977225 1e-05
0.031367 0.000975673 1e-05
0.0315215 0.000974129 1e-05
0.0316759 0.000972547 1e-05
0.0318304 0.000970942 1e-05
0.0319848 0.000969329 1e-05
0.0321393 0.000967722 1e-05
0.0322949 0.00096612 1e-05
0.0324506 0.000964481 1e-05
0.0326062 0.000962823 1e-05
0.0327619 0.000961157 1e-05
0.0329175 0.000959492 1e-05
0.0330744 0.000957831 1e-05
0.0332313 0.000956133 1e-05
0.0333881 0.00095442 1e-05
0.033545 0.000952699 1e-05
[...]
POINT_DATA 10809
 FIELD attributes 1
U 3 10809 float
10.0003 	0.00776185 	0 10.0019 	0.0181387 	0 10.0037 	0.0247617 	0 10.0054 	0.0313399 	0 10.0072 	0.0378737 	0 10.0157 	0.0520828 	0 10.0156 	0.0373871 	0 10.0203 	0.0359432 	0 10.0249 	0.0345028 	0 10.0295 	0.0330659 	0 10.0406 	0.0447927 	0 10.0402 	0.0248824 	0 10.0454 	0.0238125 	0 10.0507 	0.0227392 	0 10.056 	0.0216625 	0 10.0659 	0.0345127 	0 10.0664 	0.0204691 	0 10.071 	0.021912 	0 10.0757 	0.0233616 	0 10.0803 	0.024818 	0 10.0876 	0.0371568 	0 10.0894 	0.0284678 	0 10.0934 	0.0305524 	0 10.0974 	0.0326462 	0 10.1014 	0.0347491 	0 10.106 	0.043936 	0 10.1092 	0.0388645 	0 10.1125 	0.0404825 	0 10.1159 	0.0421064 	0 10.1193 	0.0437364 	0 10.1218 	0.0493144 	0 10.1253 	0.0467853 	0 10.1279 	0.0478684 	0 10.1305 	0.0489547 	0 10.133 	0.0500442 	0 10.1343 	0.052835 	0 10.1374 	0.05202 	0 10.1392 	0.0527197 	0 10.141 	0.0534209 	0 10.1428 	0.0541238 	0 10.1442 	0.0550755 	0 10.1449 	0.0549594 	0 10.1451 	0.0550594 	0 10.1454 	0.0551595 	0 10.1457 	0.0552596 	0 10.146 	0.0553595 	0 10.1469 	0.0556704 	0 10.1478 	0.0559817 	0 10.1488 	0.0562934 	0 10.1497 	0.0566055 	0 10.1507 	0.056643 	0 10.1514 	0.0570314 	0 10.1521 	0.0572223 	0 10.1529 	0.0574133 	0 10.1536 	0.0576046 	0 10.1546 	0.057281 	0 10.1549 	0.0576815 	0 10.1553 	0.0577076 	0 10.1556 	0.0577337 	0 10.1559 	0.0577598 	0 10.1565 	0.0571372 	0 10.1568 	0.0575184 	0 10.1568 	0.0574199 	0 10.1568 	0.0573214 	0 10.1569 	0.0572228 	0 10.1569 	0.0564145 	0 10.1574 	0.0567491 	0 10.1572 	0.056549 	0 10.1569 	0.0563489 	0 10.1567 	0.0561486 	0 10.1562 	0.0552237 	0 10.1571 	0.0554847 	0 10.1567 	0.0551862 	0 10.1563 	0.0548875 	0 10.1559 	0.0545886 	0 10.1546 	0.0535739 	0 10.1562 	0.0537274 	0 10.1557 	0.0533169 	0 10.1552 	0.0529062 	0 10.1546 	0.0524954 	0 10.1526 	0.051391 	0 10.155 	0.0513878 	0 10.1544 	0.0508167 	0 10.1539 	0.0502456 	0 10.1533 	0.0496743 	0 10.1503 	0.0484257 	0 10.1536 	0.0481179 	0 10.153 	0.0472121 	0 10.1523 	0.0463062 	0 10.1517 	0.0454001 	0 10.1476 	0.0438382 	0 10.1518 	0.0429854 	1.54285e-21 10.1509 	0.0415312 	4.97245e-21 10.1501 	0.0400768 	8.40298e-21 10.1492 	0.0386221 	1.18345e-20 10.1438 	0.0367326 	1.16578e-20 10.1485 	0.0359893 	1.62136e-20 10.1472 	0.0346808 	1.26709e-20 10.146 	0.0333721 	9.12756e-21 10.1448 	0.0320632 	5.58352e-21 10.1387 	0.0304351 	-2.83221e-21 10.1432 	0.0301027 	-1.68524e-20 10.1417 	0.029179 	-2.15989e-20 10.1402 	0.0282552 	-2.6343e-20 10.1388 	0.0273312 	-3.10846e-20 10.1324 	0.0259656 	-1.72078e-20 10.1367 	0.0258672 	-1.46313e-20 10.1352 	0.0249975 	-1.8947e-20 10.1337 	0.0241276 	-2.32657e-20 10.1322 	0.0232574 	-2.75874e-20 10.1258 	0.0218115 	-3.53923e-20 10.1301 	0.0219034 	-4.09327e-20 10.1286 	0.0210589 	-3.7467e-20 10.1271 	0.020214 	-3.40015e-20 10.1256 	0.0193688 	-3.05362e-20 10.1193 	0.0177934 	-2.57541e-20 10.1234 	0.0181279 	-9.19264e-21 10.1217 	0.0174542 	-2.75622e-21 10.1201 	0.0167802 	3.67784e-21 10.1185 	0.0161059 	1.01096e-20 10.1122 	0.0145691 	5.56445e-21 10.1159 	0.0150732 	2.55058e-21 10.1141 	0.0145802 	4.88878e-22 10.1123 	0.0140868 	-1.57271e-21 10.1105 	0.0135933 	-3.63418e-21 10.1043 	0.0121961 	-3.17151e-21 10.1075 	0.0127056 	6.95651e-21 10.1055 	0.0123061 	8.86681e-21 10.1036 	0.0119063 	1.07757e-20 10.1016 	0.0115064 	1.26831e-20 10.0955 	0.0102717 	5.23406e-21 10.0982 	0.010667 	1.78725e-20 10.0961 	0.0102986 	1.83112e-20 10.0939 	0.0099301 	1.87481e-20 10.0918 	0.0095614 	1.91833e-20 10.0859 	0.00850104 	7.94935e-21 10.0879 	0.00873982 	1.20155e-20 10.0855 	0.00838285 	1.28121e-20 10.0831 	0.00802573 	1.36084e-20 10.0807 	0.00766844 	1.44044e-20 10.0751 	0.00678934 	1.46352e-20 10.0763 	0.00686786 	2.06192e-20 10.0736 	0.00651277 	2.31164e-20 10.0709 	0.00615754 	2.56127e-20 10.0682 	0.00580216 	2.81081e-20 10.0628 	0.00508958 	2.78793e-20 10.0631 	0.00502279 	1.98944e-20 10.0601 	0.00466322 	1.22929e-20 10.0571 	0.00430352 	4.69124e-21 10.0541 	0.0039437 	-2.91042e-21 10.049 	0.0033683 	-1.08744e-20 10.0482 	0.00317968 	-1.84653e-20 10.0448 	0.0028118 	-2.5913e-20 10.0415 	0.00244379 	-3.33606e-20 10.0381 	0.00207567 	-4.0808e-20 10.0335 	0.00160362 	-4.7558e-20 10.0313 	0.00131434 	-3.63715e-20 10.0276 	0.000934586 	-2.66218e-20 10.0238 	0.000554718 	-1.68735e-20 10.0201 	0.000174736 	-7.12656e-21 10.016 	-0.000225011 	2.06772e-21 10.0152 	-0.000315562 	3.91856e-21 10.0141 	-0.000424721 	5.68895e-21 10.0129 	-0.000533889 	7.45935e-21 10.0117 	-0.000643066 	9.22976e-21 10.0106 	-0.000750884 	1.0978e-20 10.0076 	-0.00103383 	1.57365e-20 10.0045 	-0.00131685 	2.04957e-20 10.0015 	-0.00159993 	2.52556e-20 9.99846 	-0.00188307 	3.00163e-20 9.99041 	-0.00232977 	3.30365e-20 9.99055 	-0.00257 	2.65834e-20 9.98589 	-0.00297115 	1.91877e-20 9.98124 	-0.00337244 	1.17925e-20 9.97657 	-0.00377386 	4.39765e-21 9.9596 	-0.00459615 	-4.0156e-21 9.96618 	-0.00460232 	-1.87123e-20 9.96105 	-0.00501076 	-2.71227e-20 9.95591 	-0.00541936 	-3.55368e-20 9.95078 	-0.0058281 	-4.39549e-20 9.92582 	-0.00692767 	-3.92034e-20 9.93897 	-0.00669742 	-5.06042e-20 9.93334 	-0.00711198 	-6.26951e-20 9.92771 	-0.00752671 	-7.47847e-20 9.92208 	-0.00794161 	-8.68732e-20 9.88908 	-0.00930891 	-9.63049e-20 9.90876 	-0.00885747 	-9.8951e-20 9.90263 	-0.00927696 	-9.37011e-20 9.89649 	-0.00969665 	-8.84513e-20 9.89035 	-0.0101165 	-8.32018e-20 9.84945 	-0.0117249 	-6.9385e-20 9.87544 	-0.0110804 	-4.351e-20 9.86881 	-0.0115042 	-3.0948e-20 9.86216 	-0.0119282 	-1.83814e-20 9.85551 	-0.0123525 	-5.81019e-21 9.80705 	-0.0141646 	-1.22744e-20 9.83896 	-0.0133653 	-1.47836e-20 9.83182 	-0.0137941 	-2.22562e-20 9.82467 	-0.0142232 	-2.97266e-20 9.81751 	-0.0146526 	-3.71948e-20 9.76203 	-0.0166234 	-5.04596e-20 9.79932 	-0.0157132 	-4.67753e-20 9.79167 	-0.0161476 	-3.07572e-20 9.78402 	-0.0165822 	-1.47396e-20 9.77637 	-0.0170172 	1.27724e-21 9.71457 	-0.0190958 	1.73326e-20 9.75652 	-0.0181215 	2.74776e-20 9.74839 	-0.0185622 	3.56105e-20 9.74026 	-0.0190033 	4.37431e-20 9.73212 	-0.0194448 	5.18753e-20 9.66486 	-0.0215781 	5.83378e-20 9.71069 	-0.020589 	1.13898e-19 9.7021 	-0.0210364 	1.16611e-19 9.6935 	-0.0214842 	1.1933e-19 9.68489 	-0.0219324 	1.22056e-19 9.61312 	-0.0240627 	6.60367e-20 9.66193 	-0.0231087 	8.59777e-20 9.65289 	-0.0235636 	9.14097e-20 9.64384 	-0.0240188 	9.68429e-20 9.63479 	-0.0244745 	1.02277e-19 9.55956 	-0.0265473 	8.16944e-20 9.61044 	-0.0256759 	5.1439e-20 9.60098 	-0.02614 	3.84581e-20 9.59151 	-0.0266046 	2.54738e-20 9.58203 	-0.0270697 	1.24861e-20 9.50443 	-0.0290349 	2.9484e-20 9.55643 	-0.0282883 	2.25153e-20 9.54658 	-0.028763 	2.24184e-20 9.53672 	-0.0292383 	2.23202e-20 9.52685 	-0.0297141 	2.22207e-20 9.44796 	-0.0315222 	3.38199e-20 9.50019 	-0.0309477 	4.41825e-20 9.48998 	-0.0314334 	4.4561e-20 9.47975 	-0.0319197 	4.49403e-20 9.46952 	-0.0324065 	4.53203e-20 9.39037 	-0.0340044 	2.99649e-20 9.44196 	-0.0336459 	2.61159e-20 9.43141 	-0.0341413 	2.59599e-20 9.42085 	-0.0346374 	2.5803e-20 9.40745 	-0.0351692 	2.55574e-20 9.33188 	-0.0364741 	2.3386e-20 9.37754 	-0.0364029 	-2.75999e-21 9.3712 	-0.036863 	-3.04927e-21 9.36033 	-0.0373697 	-1.10021e-21 9.34187 	-0.03794 	4.77066e-21 9.27271 	-0.0389321 	3.68721e-20 9.31215 	-0.039143 	6.65618e-20 9.30965 	-0.0396093 	6.65868e-20 9.29851 	-0.0401287 	6.05101e-20 9.27601 	-0.040687 	4.74336e-20 9.21306 	-0.0413824 	9.39483e-21 9.24661 	-0.0418663 	-4.40823e-20 9.24711 	-0.0423847 	-5.17841e-20 9.23572 	-0.042916 	-4.30624e-20 9.21016 	-0.0434099 	-1.52682e-20 9.15312 	-0.0438197 	5.49344e-20 9.18118 	-0.0445637 	1.08544e-19 9.18387 	-0.0451777 	1.30646e-19 9.17226 	-0.0457188 	1.35013e-19 9.14455 	-0.0460975 	1.16489e-19 9.09308 	-0.0462359 	6.41742e-20 9.11607 	-0.047223 	-3.73268e-20 9.12025 	-0.0479731 	-9.59277e-20 9.10845 	-0.0485221 	-1.1813e-19 9.0794 	-0.0487393 	-9.29884e-20 9.03311 	-0.048624 	-2.04654e-20 9.05149 	-0.0498341 	-1.30838e-20 9.05652 	-0.0507567 	-1.005e-20 9.04456 	-0.0513118 	-1.25621e-20 9.0149 	-0.0513265 	-1.203e-20 8.97335 	-0.0509779 	-9.45334e-21 8.98758 	-0.0523881 	1.16047e-19 8.99296 	-0.0535137 	1.99518e-19 8.98086 	-0.054073 	1.99608e-19 8.95119 	-0.0538511 	1.13365e-19 8.91396 	-0.0532922 	-1.00674e-20 8.92448 	-0.0548781 	-4.643e-20 8.92978 	-0.0562316 	-7.41216e-20 8.91757 	-0.0567936 	-7.24792e-20 8.88839 	-0.0563079 	-5.62703e-20 8.85505 	-0.0555632 	-3.64665e-20 8.86231 	-0.0572997 	-1.18041e-19 8.8672 	-0.058899 	-1.89123e-19 8.8549 	-0.0594623 	-1.81974e-19 8.82663 	-0.0586941 	-1.12525e-19 8.79675 	-0.0577895 	-3.6727e-20 8.80116 	-0.0596514 	-1.11623e-19 8.8054 	-0.061508 	-1.86062e-19 8.79281 	-0.0620469 	-1.77987e-19 8.76597 	-0.0610091 	-7.89863e-20 8.73915 	-0.0599703 	2.00181e-20 8.7411 	-0.061932 	3.24105e-20 8.74296 	-0.0638959 	4.47959e-20 8.73065 	-0.0643979 	4.18728e-20 8.70649 	-0.0632523 	4.03493e-20 8.68237 	-0.0621056 	3.88254e-20 8.6822 	-0.0641435 	5.98226e-20 8.68194 	-0.0661838 	8.08206e-20 8.67006 	-0.0666559 	7.85082e-20 8.64826 	-0.0654268 	4.42949e-20 8.6265 	-0.0641965 	1.00839e-20 8.62451 	-0.0662869 	-2.78314e-20 8.62245 	-0.0683796 	-6.57519e-20 8.61104 	-0.0688223 	-6.0515e-20 8.59129 	-0.0675348 	-1.8224e-20 8.57159 	-0.0662461 	2.40749e-20 8.56808 	-0.0683694 	9.68197e-21 8.56448 	-0.070495 	-4.72525e-21 8.5536 	-0.0709088 	-1.05569e-20 8.53563 	-0.0695839 	-4.91519e-21 8.51772 	-0.0682577 	7.23948e-22 8.51292 	-0.070393 	1.80574e-20 8.50804 	-0.0725306 	3.53958e-20 8.4977 	-0.0729159 	3.60555e-20 8.48129 	-0.0715745 	1.67195e-20 8.46493 	-0.0702318 	-2.62354e-21 8.45905 	-0.0723623 	2.01212e-20 8.45309 	-0.0744951 	4.28783e-20 8.44333 	-0.0748541 	3.72038e-20 8.42828 	-0.073517 	1.53387e-20 8.41327 	-0.0721786 	-6.527e-21 8.4065 	-0.0743017 	-9.68403e-20 8.39964 	-0.076427 	-1.87153e-19 8.39048 	-0.0767617 	-1.8505e-19 8.37661 	-0.0754343 	-8.99233e-20 8.36278 	-0.0741058 	5.20432e-21 8.35527 	-0.0762066 	5.39627e-20 8.34769 	-0.0783096 	1.02721e-19 8.33913 	-0.0786198 	1.06425e-19 8.32628 	-0.0773164 	7.20198e-20 8.31346 	-0.0760118 	3.76158e-20 8.30536 	-0.0780729 	3.63068e-20 8.29718 	-0.0799787 	3.41533e-20 8.28881 	-0.0802409 	2.31907e-20 8.27728 	-0.0791651 	1.48989e-20 8.26535 	-0.0779056 	6.97575e-21 8.25677 	-0.0799182 	-2.98362e-20 8.24822 	-0.0815538 	-5.74455e-20 8.24002 	-0.0818238 	-5.18193e-20 8.2296 	-0.0810022 	-2.38519e-20 8.21845 	-0.079802 	1.18529e-20 8.20947 	-0.0817619 	3.58702e-20 8.20078 	-0.083137 	5.083e-20 8.19273 	-0.0834173 	4.88724e-20 8.1832 	-0.0828451 	2.67966e-20 8.17274 	-0.0817122 	-8.49695e-21 8.16344 	-0.0836181 	-1.03028e-19 8.15479 	-0.0847464 	-1.47917e-19 8.14687 	-0.085039 	-1.39518e-19 8.13805 	-0.0847068 	-9.11934e-20 8.1282 	-0.0836458 	3.65551e-21 8.11863 	-0.0854981 	7.42234e-20 8.11016 	-0.0863955 	9.93914e-20 8.10238 	-0.0867024 	9.64866e-20 8.09411 	-0.0865986 	7.45267e-20 8.0848 	-0.0856121 	1.16476e-20 8.07502 	-0.0874128 	-3.93491e-20 8.06685 	-0.0880968 	-5.94588e-20 8.05919 	-0.0884196 	-6.95775e-20 8.05133 	-0.0885315 	-6.99863e-20 8.04251 	-0.0876205 	-2.33586e-20 8.03255 	-0.0893729 	-1.51394e-20 8.02477 	-0.0898608 	-1.07526e-21 8.01724 	-0.0902012 	1.36708e-20 8.00967 	-0.0905161 	2.81237e-20 8.00129 	-0.0896802 	2.95085e-20 7.99129 	-0.0913379 	3.58142e-20 7.98388 	-0.0916972 	3.2807e-20 7.97645 	-0.0920568 	2.97993e-20 7.96901 	-0.0924165 	2.6791e-20 7.9611 	-0.0918003 	7.10246e-21 7.95142 	-0.0932348 	1.29838e-21 7.94411 	-0.0936147 	-8.85967e-21 7.93679 	-0.0939947 	-1.90169e-20 7.92945 	-0.094375 	-2.91732e-20 7.9219 	-0.0939897 	-3.66587e-20 7.91262 	-0.0952195 	-1.85352e-20 7.90541 	-0.0956212 	-4.98744e-21 7.89818 	-0.0960232 	8.56006e-21 7.89093 	-0.0964253 	2.21073e-20 7.88364 	-0.0962573 	2.90591e-20 7.87483 	-0.0972994 	5.08108e-20 7.8677 	-0.0977243 	4.59773e-20 7.86056 	-0.0981494 	4.11395e-20 7.8534 	-0.0985747 	3.62974e-20 7.84627 	-0.0986115 	1.05152e-20 7.83799 	-0.0994816 	-3.68398e-20 7.83094 	-0.0999308 	-4.6717e-20 7.82387 	-0.10038 	-5.65808e-20 7.81678 	-0.10083 	-6.64313e-20 7.80975 	-0.10106 	-5.12389e-20 7.80203 	-0.101773 	-5.63116e-20 7.79504 	-0.102247 	-5.78613e-20 7.78804 	-0.102722 	-5.94088e-20 7.78102 	-0.103197 	-6.0954e-20 7.77401 	-0.103611 	-6.09912e-20 7.77102 	-0.103877 	-6.28631e-20 7.76826 	-0.104077 	-5.82611e-20 7.7655 	-0.104277 	-5.36572e-20 7.76273 	-0.104477 	-4.90513e-20 7.76001 	-0.104674 	-4.45258e-20 7.75564 	-0.104977 	-3.8105e-20 7.75127 	-0.10528 	-3.1681e-20 7.74688 	-0.105584 	-2.52536e-20 7.74249 	-0.105887 	-1.8823e-20 7.73885 	-0.106104 	-1.72397e-20 7.73125 	-0.106713 	-9.87765e-21 7.72406 	-0.107244 	-1.6373e-21 7.71685 	-0.107775 	6.60452e-21 7.70962 	-0.108306 	1.48478e-20 7.70434 	-0.108611 	2.11802e-20 7.69607 	-0.109376 	7.31004e-21 7.68892 	-0.109935 	-5.54367e-21 7.68175 	-0.110494 	-1.83974e-20 7.67455 	-0.111053 	-3.12512e-20 7.67049 	-0.111253 	-3.71677e-20 7.66155 	-0.11217 	-1.46027e-20 7.65443 	-0.112759 	-7.48745e-21 7.64728 	-0.113347 	-3.64154e-22 7.64011 	-0.113937 	6.76718e-21 7.63722 	-0.114038 	-8.06671e-21 7.62763 	-0.115103 	3.89405e-20 7.62053 	-0.115722 	5.81975e-20 7.6134 	-0.116342 	7.74645e-20 7.60624 	-0.116962 	9.67416e-20 7.60449 	-0.116971 	7.11599e-20 7.59426 	-0.118179 	1.35094e-19 7.58716 	-0.118831 	1.36169e-19 7.58004 	-0.119483 	1.37259e-19 7.5729 	-0.120135 	1.38363e-19 7.57224 	-0.120059 	6.15656e-20 7.56164 	-0.121361 	1.00192e-19 7.55428 	-0.122093 	8.99846e-20 7.54716 	-0.122779 	7.57139e-20 7.5412 	-0.123332 	5.20653e-20 7.54041 	-0.12331 	-1.25404e-20 7.5299 	-0.124627 	-2.88175e-20 7.52182 	-0.125517 	-3.72312e-20 7.51469 	-0.126237 	-4.25276e-20 7.5099 	-0.126696 	-4.56921e-20 7.50897 	-0.126729 	-4.53681e-20 7.49852 	-0.128063 	-6.83146e-20 7.48974 	-0.129106 	-7.74258e-20 7.48259 	-0.129862 	-7.29281e-20 7.47893 	-0.130233 	-5.38974e-20 7.47784 	-0.130322 	-2.41712e-20 7.46746 	-0.131675 	-3.98855e-20 7.45797 	-0.132867 	-5.2437e-20 7.4508 	-0.133659 	-5.71183e-20 7.44823 	-0.133949 	-3.74181e-20 7.44699 	-0.134094 	-1.07192e-20 7.43664 	-0.135467 	6.32482e-20 7.42646 	-0.136806 	1.33364e-19 7.41925 	-0.137635 	1.46574e-19 7.41775 	-0.137848 	8.40783e-20 7.41634 	-0.138051 	2.02116e-20 7.40603 	-0.139446 	2.40764e-20 7.39567 	-0.140841 	2.79446e-20 7.389 	-0.141679 	2.45884e-20 7.38743 	-0.141938 	1.51311e-20 7.38585 	-0.142196 	5.67424e-21 7.37557 	-0.143615 	1.68006e-20 7.36523 	-0.145034 	2.79312e-20 7.35896 	-0.145906 	2.11741e-20 7.35722 	-0.146221 	-1.62082e-21 7.35547 	-0.146536 	-2.44147e-20 7.3452 	-0.14798 	-1.94623e-20 7.33487 	-0.149425 	-1.4501e-20 7.32899 	-0.150331 	-1.45938e-20 7.32707 	-0.150703 	-1.62078e-20 7.32513 	-0.151074 	-1.7821e-20 7.31486 	-0.152545 	-5.38669e-21 7.30454 	-0.154016 	7.05101e-21 7.29903 	-0.154959 	1.27133e-20 7.29691 	-0.155386 	9.36479e-21 7.29478 	-0.155813 	6.01744e-21 7.28451 	-0.157312 	2.02829e-20 7.27461 	-0.158765 	3.30875e-20 7.26943 	-0.159722 	2.98392e-20 7.2667 	-0.160274 	2.24023e-20 7.26437 	-0.160757 	1.4254e-20 7.25407 	-0.162285 	-5.08936e-21 7.24535 	-0.163643 	-2.14694e-20 7.24005 	-0.164643 	-3.15669e-20 7.23638 	-0.16537 	-2.2619e-20 7.23384 	-0.165908 	-5.50335e-22 7.22351 	-0.167466 	-5.8769e-20 7.21593 	-0.168733 	-8.17751e-20 7.21049 	-0.169776 	-7.74691e-20 7.20589 	-0.170675 	-5.85803e-20 7.20313 	-0.171268 	-8.8461e-21 7.19275 	-0.172856 	2.29896e-20 7.18629 	-0.174037 	3.20708e-20 7.18069 	-0.175123 	3.58759e-20 7.17518 	-0.176191 	3.83189e-20 7.17219 	-0.176839 	9.19148e-21 7.16208 	-0.178425 	1.63942e-20 7.15637 	-0.179555 	2.00253e-20 7.15062 	-0.180684 	2.3653e-20 7.14483 	-0.181813 	2.72772e-20 7.14096 	-0.182621 	2.17623e-20 7.132 	-0.184115 	3.98742e-20 7.12612 	-0.185287 	3.9345e-20 7.1202 	-0.18646 	3.88073e-20 7.11425 	-0.187633 	3.82612e-20 7.1094 	-0.188616 	2.76859e-20 7.10155 	-0.19002 	2.98374e-20 7.09549 	-0.191235 	2.10947e-20 7.0894 	-0.192451 	1.23425e-20 7.08326 	-0.193666 	3.58061e-21 7.07743 	-0.194823 	-7.79752e-21 7.07404 	-0.195454 	-1.02133e-20 7.07121 	-0.196028 	-6.57662e-21 7.06837 	-0.196601 	-2.9368e-21 7.06552 	-0.197174 	7.06162e-22 7.06274 	-0.197729 	4.23836e-21 7.05913 	-0.198416 	7.76455e-21 7.05549 	-0.199103 	1.12922e-20 7.05185 	-0.19979 	1.48214e-20 7.04819 	-0.200477 	1.8352e-20 7.04465 	-0.2011 	1.99901e-20 7.03809 	-0.202463 	2.48622e-20 7.03133 	-0.20376 	3.04481e-20 7.02453 	-0.205057 	3.60326e-20 7.01768 	-0.206354 	4.16157e-20 7.01115 	-0.207472 	4.64087e-20 7.00465 	-0.208993 	2.85108e-20 6.99768 	-0.210331 	1.7739e-20 6.99066 	-0.211669 	6.95856e-21 6.98359 	-0.213007 	-3.83049e-21 6.97707 	-0.214051 	3.21174e-21 6.97064 	-0.21573 	2.16121e-20 6.96345 	-0.217108 	2.12854e-20 6.9562 	-0.218485 	2.09704e-20 6.94898 	-0.219824 	1.81904e-20 6.94237 	-0.220833 	-6.13175e-21 6.93579 	-0.222581 	-7.38295e-21 6.92857 	-0.224086 	-4.45676e-21 6.92109 	-0.225503 	-4.05909e-24 6.91386 	-0.226763 	4.34603e-21 6.90699 	-0.227816 	8.56248e-21 6.90017 	-0.229597 	2.42693e-21 6.89301 	-0.231264 	-2.64459e-22 6.88528 	-0.232719 	3.57738e-21 6.87803 	-0.233898 	1.47237e-20 6.87089 	-0.234996 	2.80511e-20 6.86382 	-0.236807 	3.71315e-20 6.85667 	-0.238618 	4.62082e-20 6.84881 	-0.240086 	4.0512e-20 6.84144 	-0.241227 	2.1919e-20 6.83402 	-0.242367 	3.32279e-21 6.82668 	-0.244208 	-1.8796e-20 6.81927 	-0.246049 	-4.09168e-20 6.81169 	-0.247561 	-4.9387e-20 6.80404 	-0.248742 	-4.38493e-20 6.79633 	-0.249924 	-3.8311e-20 6.78871 	-0.251794 	-4.18997e-20 6.78103 	-0.253663 	-4.54882e-20 6.77373 	-0.255219 	-4.37904e-20 6.76578 	-0.256439 	-3.47875e-20 6.75778 	-0.25766 	-2.57849e-20 6.74988 	-0.259557 	-2.40148e-20 6.74204 	-0.261383 	-2.07399e-20 6.73461 	-0.262947 	-1.19745e-20 6.72663 	-0.26431 	-3.91237e-21 6.71832 	-0.265569 	3.78194e-21 6.71012 	-0.267492 	2.18546e-20 6.70221 	-0.269218 	3.12031e-20 6.69448 	-0.270813 	3.47671e-20 6.68653 	-0.272349 	3.45278e-20 6.67792 	-0.273642 	1.85013e-20 6.66941 	-0.275591 	2.56191e-20 6.66142 	-0.277215 	2.22458e-20 6.65336 	-0.278838 	1.88493e-20 6.64524 	-0.280461 	1.54551e-20 6.63652 	-0.281873 	7.34718e-21 6.62793 	-0.283715 	1.60694e-20 6.61961 	-0.285365 	1.22118e-20 6.61123 	-0.287015 	8.34892e-21 6.60277 	-0.288664 	4.48069e-21 6.5941 	-0.290251 	-1.36259e-21 6.59034 	-0.291021 	-3.94718e-21 6.58667 	-0.291735 	-1.95929e-21 6.58298 	-0.292448 	3.15235e-23 6.57929 	-0.293162 	2.02527e-21 6.57569 	-0.293853 	3.96083e-21 6.5711 	-0.29482 	6.12438e-21 6.56648 	-0.295786 	8.29109e-21 6.56185 	-0.296752 	1.0461e-20 6.55719 	-0.297718 	1.2634e-20 6.55232 	-0.298603 	1.13969e-20 6.54465 	-0.300391 	1.32975e-20 6.53643 	-0.302089 	1.46458e-20 6.52814 	-0.303787 	1.59969e-20 6.51978 	-0.305485 	1.73508e-20 6.51085 	-0.306962 	1.6686e-20 6.50371 	-0.308925 	6.82198e-21 6.49515 	-0.310644 	5.81111e-21 6.48653 	-0.312362 	4.79322e-21 6.4778 	-0.314064 	4.06956e-21 6.46823 	-0.315435 	9.72142e-21 6.46118 	-0.317492 	1.74311e-20 6.45273 	-0.31931 	1.64437e-20 6.44376 	-0.321046 	1.24638e-20 6.43435 	-0.32262 	5.18105e-21 6.42444 	-0.324012 	-5.8313e-21 6.41702 	-0.326079 	-9.87889e-21 6.40913 	-0.328076 	-1.35729e-20 6.39981 	-0.329827 	-1.60199e-20 6.3897 	-0.33127 	-1.26375e-20 6.37945 	-0.332681 	-8.64636e-21 6.37164 	-0.334756 	-7.87541e-22 6.36376 	-0.33683 	7.07524e-21 6.35436 	-0.338575 	1.11864e-20 6.34382 	-0.340002 	1.05873e-20 6.33322 	-0.341428 	9.98959e-21 6.32503 	-0.343508 	1.11206e-20 6.31675 	-0.345588 	1.22536e-20 6.30758 	-0.347363 	1.23707e-20 6.29669 	-0.348802 	8.46474e-21 6.28573 	-0.350241 	4.56233e-21 6.27714 	-0.352324 	4.6775e-21 6.26826 	-0.354313 	3.97592e-21 6.25874 	-0.356066 	1.22998e-21 6.24828 	-0.357658 	-6.77245e-22 6.23696 	-0.359107 	-1.83125e-21 6.22796 	-0.361191 	1.30276e-20 6.21831 	-0.363022 	1.73043e-20 6.20841 	-0.364778 	1.8432e-20 6.19843 	-0.366533 	1.95525e-20 6.18687 	-0.368013 	8.89367e-21 6.17726 	-0.370008 	-1.30051e-21 6.16704 	-0.371764 	-4.42959e-21 6.15673 	-0.37352 	-7.54863e-21 6.14636 	-0.375275 	-1.06576e-20 6.13544 	-0.376946 	-1.04878e-20 6.13102 	-0.37778 	-1.16314e-20 6.12642 	-0.378541 	-1.24741e-20 6.12181 	-0.379302 	-1.33167e-20 6.11718 	-0.380064 	-1.4159e-20 6.11267 	-0.380803 	-1.49764e-20 6.10