# vtk DataFile Version 2.0
track0
ASCII
DATASET POLYDATA
POINTS 10844 float
-0.0205 0.001 1e-05
-0.0202034 0.00100023 1e-05
-0.0199069 0.00100077 1e-05
-0.0196103 0.0010015 1e-05
-0.0193137 0.00100243 1e-05
-0.0190172 0.00100355 1e-05
-0.0187132 0.00100513 1e-05
-0.0184093 0.00100627 1e-05
-0.0181054 0.00100736 1e-05
-0.0178015 0.0010084 1e-05
-0.0174976 0.00100941 1e-05
-0.0172058 0.00101071 1e-05
-0.016914 0.00101143 1e-05
-0.0166222 0.00101212 1e-05
-0.0163305 0.00101278 1e-05
-0.0160387 0.00101341 1e-05
-0.0157586 0.00101437 1e-05
-0.0154784 0.00101494 1e-05
-0.0151983 0.00101555 1e-05
-0.0149182 0.0010162 1e-05
-0.0146381 0.00101689 1e-05
-0.0143692 0.00101788 1e-05
-0.0141002 0.00101864 1e-05
-0.0138313 0.00101945 1e-05
-0.0135624 0.00102032 1e-05
-0.0132934 0.00102124 1e-05
-0.0130353 0.00102237 1e-05
-0.0127771 0.00102336 1e-05
-0.0125189 0.00102439 1e-05
-0.0122607 0.00102547 1e-05
-0.0120025 0.00102658 1e-05
-0.0117547 0.00102779 1e-05
-0.0115068 0.00102894 1e-05
-0.0112589 0.00103011 1e-05
-0.0110111 0.0010313 1e-05
-0.0107632 0.00103253 1e-05
-0.0105252 0.00103377 1e-05
-0.0102873 0.00103499 1e-05
-0.0100493 0.00103623 1e-05
-0.00981133 0.00103748 1e-05
-0.00957337 0.00103875 1e-05
-0.00951793 0.00103905 1e-05
-0.0094625 0.00103935 1e-05
-0.00940707 0.00103965 1e-05
-0.00935163 0.00103995 1e-05
-0.00929631 0.00104025 1e-05
-0.00912327 0.0010412 1e-05
-0.00895022 0.00104215 1e-05
-0.00877717 0.0010431 1e-05
-0.00860413 0.00104406 1e-05
-0.00843108 0.00104503 1e-05
-0.00821175 0.00104625 1e-05
-0.00799242 0.00104748 1e-05
-0.00777309 0.00104872 1e-05
-0.00755376 0.00104996 1e-05
-0.00733443 0.0010512 1e-05
-0.00712387 0.00105239 1e-05
-0.0069133 0.00105358 1e-05
-0.00670273 0.00105478 1e-05
-0.00649217 0.00105598 1e-05
-0.0062816 0.00105717 1e-05
-0.00607944 0.00105831 1e-05
-0.00587729 0.00105945 1e-05
-0.00567514 0.0010606 1e-05
-0.00547298 0.00106174 1e-05
-0.00527083 0.00106288 1e-05
-0.00507675 0.00106395 1e-05
-0.00488267 0.00106504 1e-05
-0.0046886 0.00106612 1e-05
-0.00449452 0.00106719 1e-05
-0.00430044 0.00106827 1e-05
-0.00411412 0.00106928 1e-05
-0.0039278 0.0010703 1e-05
-0.00374147 0.00107131 1e-05
-0.00355515 0.00107231 1e-05
-0.00336883 0.00107331 1e-05
-0.00318995 0.00107426 1e-05
-0.00301107 0.0010752 1e-05
-0.00283219 0.00107614 1e-05
-0.00265331 0.00107707 1e-05
-0.00247443 0.001078 1e-05
-0.0023027 0.00107886 1e-05
-0.00213097 0.00107973 1e-05
-0.00195924 0.00108059 1e-05
-0.0017875 0.00108144 1e-05
-0.00161577 0.00108228 1e-05
-0.0014509 0.00108306 1e-05
-0.00128603 0.00108384 1e-05
-0.00112116 0.00108461 1e-05
-0.000956289 0.00108536 1e-05
-0.000791418 0.00108609 1e-05
-0.000633135 0.00108678 1e-05
-0.000474851 0.00108744 1e-05
-0.000316567 0.00108809 1e-05
-0.000158283 0.00108871 1e-05
-9.35959e-21 0.00108931 1e-05
0.000105677 0.00108969 1e-05
0.000211355 0.00109006 1e-05
0.000317032 0.00109042 1e-05
0.00042271 0.00109077 1e-05
0.000528387 0.0010911 1e-05
0.000634886 0.00109142 1e-05
0.000741385 0.00109173 1e-05
0.000847885 0.00109203 1e-05
0.000954384 0.00109233 1e-05
0.00106088 0.00109261 1e-05
0.00116821 0.00109288 1e-05
0.00127554 0.00109315 1e-05
0.00138286 0.00109342 1e-05
0.00149019 0.00109367 1e-05
0.00159752 0.00109391 1e-05
0.00170568 0.00109414 1e-05
0.00181384 0.00109437 1e-05
0.001922 0.0010946 1e-05
0.00203016 0.00109481 1e-05
0.00213833 0.00109501 1e-05
0.00224733 0.0010952 1e-05
0.00235633 0.0010954 1e-05
0.00246533 0.00109558 1e-05
0.00257434 0.00109576 1e-05
0.00268334 0.00109593 1e-05
0.00279319 0.00109609 1e-05
0.00290304 0.00109625 1e-05
0.00301289 0.00109641 1e-05
0.00312274 0.00109657 1e-05
0.00323259 0.00109672 1e-05
0.00334329 0.00109685 1e-05
0.003454 0.00109699 1e-05
0.0035647 0.00109713 1e-05
0.0036754 0.00109726 1e-05
0.00378611 0.00109739 1e-05
0.00389767 0.00109751 1e-05
0.00400924 0.00109763 1e-05
0.0041208 0.00109775 1e-05
0.00423237 0.00109786 1e-05
0.00434393 0.00109798 1e-05
0.00445636 0.00109808 1e-05
0.00456879 0.00109818 1e-05
0.00468123 0.00109828 1e-05
0.00479366 0.00109838 1e-05
0.00490609 0.00109847 1e-05
0.0050194 0.00109855 1e-05
0.0051327 0.00109864 1e-05
0.00524601 0.00109872 1e-05
0.00535932 0.0010988 1e-05
0.00547262 0.00109887 1e-05
0.00558681 0.00109894 1e-05
0.005701 0.00109901 1e-05
0.00581518 0.00109907 1e-05
0.00592937 0.00109913 1e-05
0.00604356 0.00109919 1e-05
0.00615863 0.00109924 1e-05
0.00627371 0.00109928 1e-05
0.00638878 0.00109933 1e-05
0.00650386 0.00109937 1e-05
0.00661893 0.0010994 1e-05
0.0067349 0.00109943 1e-05
0.00685087 0.00109946 1e-05
0.00696684 0.00109949 1e-05
0.00708281 0.0010995 1e-05
0.00719878 0.00109952 1e-05
0.00723621 0.00109952 1e-05
0.00727365 0.00109953 1e-05
0.00731109 0.00109953 1e-05
0.00734852 0.00109953 1e-05
0.00738541 0.00109953 1e-05
0.00746496 0.00109953 1e-05
0.0075445 0.00109953 1e-05
0.00762405 0.00109953 1e-05
0.00770359 0.00109953 1e-05
0.00778313 0.00109952 1e-05
0.00790091 0.00109951 1e-05
0.00801869 0.00109949 1e-05
0.00813647 0.00109947 1e-05
0.00825425 0.00109944 1e-05
0.00837203 0.00109941 1e-05
0.00849073 0.00109937 1e-05
0.00860942 0.00109933 1e-05
0.00872812 0.00109928 1e-05
0.00884682 0.00109923 1e-05
0.00896551 0.00109917 1e-05
0.00908513 0.0010991 1e-05
0.00920475 0.00109903 1e-05
0.00932437 0.00109896 1e-05
0.00944398 0.00109888 1e-05
0.0095636 0.00109879 1e-05
0.00968415 0.00109869 1e-05
0.0098047 0.00109859 1e-05
0.00992525 0.00109849 1e-05
0.0100458 0.00109838 1e-05
0.0101663 0.00109827 1e-05
0.0102878 0.00109814 1e-05
0.0104093 0.00109801 1e-05
0.0105308 0.00109788 1e-05
0.0106523 0.00109774 1e-05
0.0107738 0.0010976 1e-05
0.0108962 0.00109743 1e-05
0.0110186 0.00109727 1e-05
0.0111411 0.0010971 1e-05
0.0112635 0.00109693 1e-05
0.0113859 0.00109676 1e-05
0.0115093 0.00109655 1e-05
0.0116327 0.00109636 1e-05
0.0117561 0.00109616 1e-05
0.0118795 0.00109596 1e-05
0.0120028 0.00109575 1e-05
0.0121272 0.00109551 1e-05
0.0122515 0.00109528 1e-05
0.0123759 0.00109505 1e-05
0.0125002 0.00109481 1e-05
0.0126245 0.00109456 1e-05
0.0127498 0.00109428 1e-05
0.0128752 0.00109401 1e-05
0.0130005 0.00109374 1e-05
0.0131258 0.00109346 1e-05
0.0132511 0.00109318 1e-05
0.0133774 0.00109286 1e-05
0.0135036 0.00109255 1e-05
0.0136299 0.00109224 1e-05
0.0137562 0.00109192 1e-05
0.0138825 0.0010916 1e-05
0.0140098 0.00109124 1e-05
0.014137 0.00109089 1e-05
0.0142643 0.00109054 1e-05
0.0143915 0.00109017 1e-05
0.0145188 0.0010898 1e-05
0.0146471 0.0010894 1e-05
0.0147753 0.00108901 1e-05
0.0149036 0.00108862 1e-05
0.0150318 0.00108821 1e-05
0.0151601 0.0010878 1e-05
0.0152893 0.00108735 1e-05
0.0154186 0.00108691 1e-05
0.0155478 0.00108647 1e-05
0.0156771 0.00108602 1e-05
0.0158063 0.00108556 1e-05
0.0159366 0.00108507 1e-05
0.0160668 0.00108458 1e-05
0.0161971 0.00108409 1e-05
0.0163274 0.00108359 1e-05
0.0164576 0.00108308 1e-05
0.0165889 0.00108255 1e-05
0.0167201 0.00108201 1e-05
0.0168514 0.00108147 1e-05
0.0169827 0.00108092 1e-05
0.0171139 0.00108036 1e-05
0.0172462 0.00107978 1e-05
0.0173785 0.00107919 1e-05
0.0175108 0.0010786 1e-05
0.0176431 0.00107799 1e-05
0.0177754 0.00107738 1e-05
0.0179087 0.00107675 1e-05
0.018042 0.00107611 1e-05
0.0181753 0.00107546 1e-05
0.0183087 0.0010748 1e-05
0.018442 0.00107414 1e-05
0.0185763 0.00107345 1e-05
0.0187107 0.00107276 1e-05
0.018845 0.00107206 1e-05
0.0189794 0.00107134 1e-05
0.0191137 0.00107062 1e-05
0.0192491 0.00106989 1e-05
0.0193845 0.00106914 1e-05
0.0195199 0.00106838 1e-05
0.0196553 0.00106761 1e-05
0.0197907 0.00106683 1e-05
0.0199272 0.00106605 1e-05
0.0200636 0.00106524 1e-05
0.0202001 0.00106442 1e-05
0.0203365 0.00106359 1e-05
0.020473 0.00106276 1e-05
0.0206105 0.00106192 1e-05
0.020748 0.00106106 1e-05
0.0208855 0.00106018 1e-05
0.021023 0.00105929 1e-05
0.0211606 0.0010584 1e-05
0.0212991 0.0010575 1e-05
0.0214377 0.00105659 1e-05
0.0215763 0.00105564 1e-05
0.0217149 0.00105469 1e-05
0.0218535 0.00105374 1e-05
0.0219931 0.0010528 1e-05
0.0221328 0.00105182 1e-05
0.0222724 0.00105082 1e-05
0.0224121 0.0010498 1e-05
0.0225517 0.00104879 1e-05
0.0226925 0.00104779 1e-05
0.0228332 0.00104676 1e-05
0.022974 0.00104569 1e-05
0.0231147 0.00104461 1e-05
0.0232555 0.00104355 1e-05
0.0233973 0.00104249 1e-05
0.0235391 0.00104139 1e-05
0.023681 0.00104027 1e-05
0.0238228 0.00103913 1e-05
0.0239647 0.00103801 1e-05
0.0241076 0.00103689 1e-05
0.0242505 0.00103574 1e-05
0.0243935 0.00103455 1e-05
0.0245364 0.00103335 1e-05
0.0246794 0.00103217 1e-05
0.0248234 0.00103099 1e-05
0.0249675 0.00102978 1e-05
0.0251115 0.00102853 1e-05
0.0252556 0.00102727 1e-05
0.0253996 0.00102603 1e-05
0.0255448 0.00102479 1e-05
0.02569 0.00102352 1e-05
0.0258351 0.00102221 1e-05
0.0259803 0.00102089 1e-05
0.0261255 0.00101959 1e-05
0.0262718 0.00101829 1e-05
0.0264181 0.00101696 1e-05
0.0265644 0.00101559 1e-05
0.0267107 0.00101421 1e-05
0.026857 0.00101284 1e-05
0.0270044 0.00101149 1e-05
0.0271519 0.0010101 1e-05
0.0272993 0.00100866 1e-05
0.0274468 0.00100722 1e-05
0.0275942 0.00100579 1e-05
0.0277428 0.00100438 1e-05
0.0278914 0.00100292 1e-05
0.0280399 0.00100143 1e-05
0.0281885 0.00099992 1e-05
0.0283371 0.000998433 1e-05
0.0284869 0.000996955 1e-05
0.0286366 0.000995435 1e-05
0.0287863 0.000993876 1e-05
0.0289361 0.000992309 1e-05
0.0290858 0.00099076 1e-05
0.0292367 0.000989217 1e-05
0.0293876 0.000987634 1e-05
0.0295385 0.000986016 1e-05
0.0296894 0.000984389 1e-05
0.0298403 0.000982776 1e-05
0.0299924 0.000981168 1e-05
0.0301445 0.00097952 1e-05
0.0302966 0.000977841 1e-05
0.0304486 0.000976154 1e-05
0.0306007 0.000974475 1e-05
0.030754 0.0009728 1e-05
0.0309072 0.000971086 1e-05
0.0310605 0.000969345 1e-05
0.0312138 0.000967595 1e-05
0.031367 0.000965849 1e-05
0.0315215 0.000964106 1e-05
0.0316759 0.000962323 1e-05
0.0318304 0.000960519 1e-05
0.0319848 0.000958704 1e-05
0.0321393 0.000956889 1e-05
0.0322949 0.000955076 1e-05
0.0324506 0.000953222 1e-05
0.0326062 0.000951351 1e-05
0.0327619 0.00094947 1e-05
0.0329175 0.000947584 1e-05
0.0330744 0.000945697 1e-05
0.0332313 0.000943771 1e-05
0.0333881 0.000941832 1e-05
[...]
POINT_DATA 10844
 FIELD attributes 1
U 3 10844 float
10.0003 	0.00776164 	0 10.0019 	0.018138 	0 10.0037 	0.0247605 	0 10.0054 	0.0313383 	0 10.0072 	0.0378717 	0 10.0157 	0.0520805 	0 10.0156 	0.0373842 	0 10.0203 	0.03594 	0 10.0249 	0.0344992 	0 10.0295 	0.0330618 	0 10.0406 	0.0447886 	0 10.0402 	0.0248775 	0 10.0454 	0.0238072 	0 10.0507 	0.0227336 	0 10.0559 	0.0216565 	0 10.0659 	0.0345072 	0 10.0664 	0.0204623 	0 10.071 	0.021905 	0 10.0756 	0.0233544 	0 10.0803 	0.0248105 	0 10.0876 	0.0371503 	0 10.0894 	0.0284599 	0 10.0934 	0.0305441 	0 10.0974 	0.0326376 	0 10.1014 	0.0347402 	0 10.106 	0.0439281 	0 10.1092 	0.0388549 	0 10.1125 	0.0404725 	0 10.1159 	0.0420961 	0 10.1193 	0.0437257 	0 10.1218 	0.0493048 	0 10.1253 	0.0467741 	0 10.1279 	0.0478568 	0 10.1305 	0.0489427 	0 10.133 	0.0500319 	0 10.1343 	0.0528236 	0 10.1374 	0.0520071 	0 10.1392 	0.0527064 	0 10.141 	0.0534073 	0 10.1428 	0.0541098 	0 10.1442 	0.0550624 	0 10.1448 	0.0549456 	0 10.1451 	0.0550461 	0 10.1454 	0.0551466 	0 10.1457 	0.0552471 	0 10.146 	0.0553475 	0 10.1469 	0.0556576 	0 10.1478 	0.0559681 	0 10.1488 	0.056279 	0 10.1497 	0.0565902 	0 10.1507 	0.0566275 	0 10.1514 	0.0570151 	0 10.1521 	0.0572055 	0 10.1529 	0.0573962 	0 10.1536 	0.057587 	0 10.1546 	0.0572635 	0 10.1549 	0.0576631 	0 10.1553 	0.0576886 	0 10.1556 	0.0577141 	0 10.1559 	0.0577396 	0 10.1565 	0.057117 	0 10.1568 	0.057497 	0 10.1568 	0.0573977 	0 10.1568 	0.0572984 	0 10.1569 	0.057199 	0 10.1569 	0.0563903 	0 10.1574 	0.0567234 	0 10.1572 	0.0565221 	0 10.1569 	0.0563207 	0 10.1567 	0.0561192 	0 10.1562 	0.0551935 	0 10.1571 	0.0554523 	0 10.1567 	0.0551518 	0 10.1563 	0.0548511 	0 10.1559 	0.0545503 	0 10.1546 	0.0535339 	0 10.1562 	0.0536841 	0 10.1557 	0.0532703 	0 10.1552 	0.0528564 	0 10.1547 	0.0524423 	0 10.1526 	0.0513349 	0 10.155 	0.0513262 	0 10.1544 	0.0507493 	0 10.1539 	0.0501723 	0 10.1533 	0.0495951 	0 10.1503 	0.0483408 	0 10.1536 	0.0480244 	0 10.153 	0.0471098 	0 10.1523 	0.0461951 	0 10.1517 	0.0452802 	0 10.1476 	0.0437102 	0 10.1518 	0.042846 	1.90894e-21 10.1509 	0.0413783 	6.14781e-21 10.1501 	0.0399103 	1.03878e-20 10.1492 	0.0384421 	1.4629e-20 10.1438 	0.0365389 	1.44156e-20 10.1484 	0.0357818 	2.00507e-20 10.1472 	0.0344606 	1.56753e-20 10.146 	0.0331393 	1.12991e-20 10.1448 	0.0318179 	6.922e-21 10.1387 	0.0301805 	-3.4808e-21 10.1431 	0.0298382 	-2.07795e-20 10.1416 	0.0289083 	-2.66435e-20 10.1401 	0.0279782 	-3.25044e-20 10.1386 	0.0270479 	-3.83623e-20 10.1322 	0.0256822 	-2.12655e-20 10.1365 	0.025583 	-1.81073e-20 10.135 	0.0247142 	-2.34276e-20 10.1335 	0.0238451 	-2.87516e-20 10.1319 	0.0229757 	-3.40793e-20 10.1255 	0.0215358 	-4.36908e-20 10.1298 	0.0216427 	-5.05157e-20 10.1283 	0.0208108 	-4.62387e-20 10.1267 	0.0199786 	-4.1962e-20 10.1252 	0.0191461 	-3.76855e-20 10.1189 	0.0175833 	-3.17813e-20 10.1229 	0.0179506 	-1.13903e-20 10.1213 	0.0173049 	-3.45531e-21 10.1197 	0.0166588 	4.47695e-21 10.118 	0.0160125 	1.24064e-20 10.1117 	0.0144977 	6.84088e-21 10.1153 	0.0150455 	3.12898e-21 10.1136 	0.0145921 	5.89457e-22 10.1118 	0.0141386 	-1.94994e-21 10.11 	0.0136848 	-4.4892e-21 10.1037 	0.0123196 	-3.92506e-21 10.1069 	0.0128745 	8.52804e-21 10.105 	0.0125188 	1.08911e-20 10.103 	0.0121629 	1.32526e-20 10.101 	0.0118068 	1.56125e-20 10.095 	0.01061 	6.48017e-21 10.0976 	0.0110445 	2.20004e-20 10.0955 	0.0107163 	2.2538e-20 10.0933 	0.010388 	2.30737e-20 10.0912 	0.0100595 	2.36074e-20 10.0853 	0.00903684 	9.80525e-21 10.0873 	0.00930755 	1.48009e-20 10.0849 	0.00898588 	1.5779e-20 10.0825 	0.00866407 	1.67569e-20 10.0801 	0.00834211 	1.77344e-20 10.0745 	0.00749868 	1.80191e-20 10.0757 	0.00760389 	2.5389e-20 10.073 	0.00727949 	2.84724e-20 10.0703 	0.00695495 	3.15548e-20 10.0676 	0.00663029 	3.46361e-20 10.0622 	0.00594977 	3.43621e-20 10.0625 	0.00590415 	2.45221e-20 10.0595 	0.00556871 	1.51533e-20 10.0565 	0.00523316 	5.78455e-21 10.0535 	0.00489749 	-3.5843e-21 10.0484 	0.00434709 	-1.34041e-20 10.0476 	0.0041738 	-2.27644e-20 10.0442 	0.00382231 	-3.1946e-20 10.0408 	0.0034707 	-4.11275e-20 10.0375 	0.00311899 	-5.03088e-20 10.0328 	0.0026627 	-5.86143e-20 10.0307 	0.00238317 	-4.47869e-20 10.0269 	0.00201223 	-3.27632e-20 10.0231 	0.00164117 	-2.07412e-20 10.0194 	0.00127001 	-8.72095e-21 10.0153 	0.0008768 	2.52978e-21 10.0144 	0.000773287 	5.14114e-21 10.013 	0.000648777 	7.64012e-21 10.0117 	0.000524255 	1.01391e-20 10.0103 	0.000399721 	1.26381e-20 10.009 	0.000276979 	1.5101e-20 10.0061 	1.11149e-05 	2.06328e-20 10.0033 	-0.000254806 	2.61655e-20 10.0004 	-0.000520783 	3.1699e-20 9.9975 	-0.000786816 	3.72333e-20 9.98992 	-0.0012093 	4.07692e-20 9.98972 	-0.00146218 	3.27351e-20 9.98503 	-0.00186839 	2.36195e-20 9.98034 	-0.00227473 	1.45043e-20 9.97564 	-0.0026812 	5.38958e-21 9.95902 	-0.00350213 	-4.93594e-21 9.96519 	-0.00352735 	-2.27685e-20 9.96001 	-0.00394732 	-3.31282e-20 9.95483 	-0.00436744 	-4.34927e-20 9.94965 	-0.00478771 	-5.38622e-20 9.9251 	-0.00589161 	-4.8434e-20 9.93775 	-0.00568792 	-6.25317e-20 9.93208 	-0.00612017 	-7.74647e-20 9.92639 	-0.00655259 	-9.23962e-20 9.92071 	-0.00698519 	-1.07326e-19 9.88819 	-0.0083608 	-1.1906e-19 9.90727 	-0.00794441 	-1.22095e-19 9.90108 	-0.00838765 	-1.15619e-19 9.89489 	-0.0088311 	-1.09144e-19 9.88868 	-0.00927475 	-1.02669e-19 9.84834 	-0.0108943 	-8.58407e-20 9.87364 	-0.0102942 	-5.42391e-20 9.86693 	-0.0107478 	-3.87469e-20 9.86022 	-0.0112016 	-2.32486e-20 9.8535 	-0.0116557 	-7.74424e-21 9.80569 	-0.0134806 	-1.53211e-20 9.8368 	-0.0127356 	-1.85197e-20 9.82958 	-0.0131998 	-2.77463e-20 9.82235 	-0.0136643 	-3.69701e-20 9.81512 	-0.0141291 	-4.61909e-20 9.76038 	-0.0161132 	-6.24643e-20 9.79675 	-0.0152673 	-5.7663e-20 9.78903 	-0.0157423 	-3.7883e-20 9.7813 	-0.0162177 	-1.81039e-20 9.77356 	-0.0166935 	1.67436e-21 9.7126 	-0.0187847 	2.15007e-20 9.75354 	-0.0178848 	3.39712e-20 9.74533 	-0.0183707 	4.40007e-20 9.73711 	-0.0188571 	5.40297e-20 9.72887 	-0.0193438 	6.40582e-20 9.66257 	-0.0214867 	7.20673e-20 9.70727 	-0.0205826 	1.39809e-19 9.69859 	-0.0210793 	1.43154e-19 9.68989 	-0.0215765 	1.46507e-19 9.68119 	-0.0220741 	1.49869e-19 9.61048 	-0.0242103 	8.15412e-20 9.65806 	-0.0233516 	1.05947e-19 9.64893 	-0.0238599 	1.12669e-19 9.63978 	-0.0243687 	1.19393e-19 9.63063 	-0.024878 	1.26118e-19 9.55657 	-0.0269539 	1.01044e-19 9.60612 	-0.0261868 	6.38878e-20 9.59657 	-0.0267084 	4.78586e-20 9.58701 	-0.0272305 	3.18247e-20 9.57743 	-0.0277532 	1.57861e-20 9.50109 	-0.0297175 	3.64599e-20 9.55169 	-0.0290858 	2.79253e-20 9.54174 	-0.0296217 	2.77963e-20 9.53179 	-0.0301582 	2.76657e-20 9.52182 	-0.0306954 	2.75334e-20 9.44427 	-0.032497 	4.17429e-20 9.49502 	-0.032048 	5.4454e-20 9.48472 	-0.0325977 	5.4921e-20 9.4744 	-0.0331482 	5.5389e-20 9.46406 	-0.0336993 	5.58581e-20 9.38634 	-0.0352852 	3.7021e-20 9.4364 	-0.0350581 	3.22732e-20 9.42576 	-0.0356204 	3.20811e-20 9.41511 	-0.0361835 	3.18876e-20 9.4019 	-0.0367765 	3.15948e-20 9.32751 	-0.0380735 	2.89368e-20 9.3719 	-0.0381341 	-3.31733e-21 9.36519 	-0.0386709 	-3.58134e-21 9.35423 	-0.039248 	-1.20077e-21 9.33597 	-0.0398778 	5.93027e-21 9.268 	-0.0408638 	4.55089e-20 9.3062 	-0.0412124 	8.20589e-20 9.30332 	-0.0417628 	8.20158e-20 9.29209 	-0.0423551 	7.45348e-20 9.2698 	-0.0429688 	5.8458e-20 9.20802 	-0.0436573 	1.16057e-20 9.24037 	-0.0442825 	-5.4273e-20 9.24048 	-0.044893 	-6.3812e-20 9.22899 	-0.0454987 	-5.31084e-20 9.20366 	-0.0460419 	-1.88065e-20 9.14776 	-0.0464457 	6.76537e-20 9.17467 	-0.0473321 	1.33637e-19 9.17697 	-0.0480466 	1.61021e-19 9.16526 	-0.0486636 	1.66434e-19 9.13779 	-0.0490845 	1.43411e-19 9.0874 	-0.0492194 	7.9021e-20 9.10931 	-0.0503479 	-4.59089e-20 9.1131 	-0.0512073 	-1.18589e-19 9.1012 	-0.0518337 	-1.45999e-19 9.0724 	-0.0520855 	-1.14397e-19 9.02709 	-0.0519714 	-2.51618e-20 9.04447 	-0.0533203 	-1.60946e-20 9.04914 	-0.0543613 	-1.22915e-20 9.03707 	-0.0549952 	-1.54313e-20 9.00765 	-0.0550374 	-1.47451e-20 8.967 	-0.0546965 	-1.15839e-20 8.98031 	-0.0562421 	1.42682e-19 8.98535 	-0.0574954 	2.47117e-19 8.97314 	-0.0581351 	2.47364e-19 8.94369 	-0.0579337 	1.39554e-19 8.90725 	-0.0573902 	-1.21561e-20 8.91696 	-0.0591071 	-5.67563e-20 8.92194 	-0.0605968 	-9.14269e-20 8.90961 	-0.0612407 	-8.93695e-20 8.88064 	-0.0607691 	-6.91111e-20 8.84797 	-0.0600484 	-4.47966e-20 8.85451 	-0.0619103 	-1.4493e-19 8.85912 	-0.063654 	-2.34316e-19 8.8467 	-0.0643007 	-2.25601e-19 8.81859 	-0.0635405 	-1.38673e-19 8.78927 	-0.062669 	-4.55945e-20 8.79305 	-0.0646505 	-1.37537e-19 8.79676 	-0.0666342 	-2.29492e-19 8.78402 	-0.0672427 	-2.18873e-19 8.75763 	-0.0662477 	-9.74389e-20 8.73126 	-0.0652517 	2.40001e-20 8.73266 	-0.0673273 	3.91313e-20 8.73397 	-0.0694052 	5.42532e-20 8.72162 	-0.0699845 	5.13933e-20 8.69781 	-0.0688913 	4.95236e-20 8.67404 	-0.0677971 	4.76534e-20 8.67339 	-0.069943 	7.33707e-20 8.67266 	-0.0720914 	9.90891e-20 8.66075 	-0.0726414 	9.56024e-20 8.6392 	-0.0714747 	5.37135e-20 8.61769 	-0.0703069 	1.1827e-20 8.6153 	-0.0725003 	-3.46438e-20 8.61282 	-0.0746961 	-8.11213e-20 8.60141 	-0.0752175 	-7.57565e-20 8.58182 	-0.0740019 	-2.39617e-20 8.56227 	-0.0727851 	2.78424e-20 8.5584 	-0.0750069 	1.00854e-20 8.55445 	-0.0772311 	-7.68988e-21 8.54358 	-0.0777244 	-1.22744e-20 8.52569 	-0.0764798 	-5.37503e-21 8.50785 	-0.075234 	1.52147e-21 8.50274 	-0.0774622 	2.27658e-20 8.49754 	-0.0796928 	4.40165e-20 8.48724 	-0.0801585 	4.59327e-20 8.47083 	-0.0789073 	2.22602e-20 8.45447 	-0.077655 	-1.42037e-21 8.44831 	-0.0798772 	2.64824e-20 8.44207 	-0.0821018 	5.44011e-20 8.43236 	-0.0825429 	4.54631e-20 8.41725 	-0.0813026 	1.87841e-20 8.40218 	-0.0800612 	-7.89572e-21 8.39515 	-0.082276 	-1.17956e-19 8.38804 	-0.0844931 	-2.28015e-19 8.37895 	-0.0849111 	-2.25456e-19 8.36495 	-0.0836851 	-1.09549e-19 8.351 	-0.0824581 	6.36047e-21 8.34327 	-0.0846487 	6.57338e-20 8.33542 	-0.086784 	1.23339e-19 8.3267 	-0.0871386 	1.26156e-19 8.31394 	-0.0860402 	8.70732e-20 8.30096 	-0.0848435 	4.51851e-20 8.29264 	-0.0869933 	4.35358e-20 8.28423 	-0.0888459 	3.9928e-20 8.27565 	-0.0892074 	2.6562e-20 8.26422 	-0.0883737 	1.61787e-20 8.25207 	-0.0872284 	6.57488e-21 8.24327 	-0.0893297 	-3.82723e-20 8.23455 	-0.0909044 	-6.7347e-20 8.22612 	-0.0912764 	-6.04729e-20 8.21574 	-0.0907088 	-2.9982e-20 8.20433 	-0.089628 	1.33965e-20 8.19514 	-0.0916778 	4.24898e-20 8.18633 	-0.0929864 	5.75144e-20 8.17802 	-0.0933717 	5.50373e-20 8.16848 	-0.0930639 	3.24956e-20 8.15772 	-0.0920553 	-1.03168e-20 8.14821 	-0.0940533 	-1.24883e-19 8.13947 	-0.0951114 	-1.65884e-19 8.13129 	-0.0955124 	-1.55472e-19 8.12241 	-0.0954538 	-1.09022e-19 8.11222 	-0.0945214 	5.88563e-21 8.10244 	-0.096469 	9.14032e-20 8.09392 	-0.097294 	1.11468e-19 8.08586 	-0.0977127 	1.07836e-19 8.07748 	-0.0978908 	9.0493e-20 8.06781 	-0.0970364 	1.43867e-20 8.0578 	-0.0989364 	-4.72675e-20 8.04961 	-0.0995463 	-6.5201e-20 8.04165 	-0.0999845 	-7.73029e-20 8.03364 	-0.100386 	-8.73338e-20 8.02443 	-0.0996105 	-3.09519e-20 8.01431 	-0.10142 	-2.08882e-20 8.00647 	-0.101879 	-3.15327e-21 7.99861 	-0.102339 	1.45801e-20 7.99073 	-0.102799 	3.2312e-20 7.98206 	-0.102254 	3.61005e-20 7.9722 	-0.103821 	4.19871e-20 7.96445 	-0.104303 	3.83536e-20 7.95668 	-0.104786 	3.47192e-20 7.94889 	-0.105268 	3.10838e-20 7.94065 	-0.104976 	1.12118e-20 7.93115 	-0.106321 	3.26801e-21 7.92348 	-0.106827 	-8.90217e-21 7.9158 	-0.107334 	-2.1071e-20 7.90809 	-0.107841 	-3.32385e-20 7.90016 	-0.107786 	-4.30346e-20 7.8911 	-0.108927 	-2.26633e-20 7.88351 	-0.109459 	-6.41949e-21 7.87589 	-0.109991 	9.82398e-21 7.86826 	-0.110524 	2.60671e-20 7.86055 	-0.110694 	3.71998e-20 7.85199 	-0.111647 	5.17721e-20 7.84446 	-0.112206 	4.57663e-20 7.83691 	-0.112766 	3.97538e-20 7.82934 	-0.113325 	3.37344e-20 7.82175 	-0.113709 	1.61551e-20 7.81374 	-0.114488 	-1.58851e-20 7.80627 	-0.115075 	-2.72735e-20 7.79878 	-0.115663 	-3.86411e-20 7.79126 	-0.116252 	-4.9988e-20 7.78372 	-0.116838 	-6.0983e-20 7.7836 	-0.116849 	-6.10541e-20 7.7835 	-0.116858 	-6.10787e-20 7.78339 	-0.116866 	-6.11032e-20 7.78329 	-0.116875 	-6.11277e-20 7.78319 	-0.116884 	-6.11523e-20 7.77555 	-0.117495 	-6.24265e-20 7.76789 	-0.118106 	-6.36954e-20 7.76021 	-0.118718 	-6.49588e-20 7.7525 	-0.119329 	-6.62167e-20 7.74612 	-0.119784 	-6.85559e-20 7.73763 	-0.120577 	-4.62432e-20 7.7299 	-0.121227 	-3.32007e-20 7.72214 	-0.121877 	-2.01443e-20 7.71436 	-0.122528 	-7.07392e-21 7.70923 	-0.122867 	-1.48679e-20 7.7 	-0.123832 	-8.68562e-21 7.6923 	-0.124513 	1.25185e-21 7.68456 	-0.125195 	1.11916e-20 7.6768 	-0.125878 	2.11336e-20 7.673 	-0.126101 	2.63716e-20 7.66303 	-0.127233 	8.63705e-21 7.65534 	-0.127947 	-6.69964e-21 7.64761 	-0.128662 	-2.20364e-20 7.63986 	-0.129377 	-3.73732e-20 7.63733 	-0.12949 	-3.89018e-20 7.62664 	-0.130787 	5.37785e-22 7.61895 	-0.131536 	9.19522e-21 7.61123 	-0.132285 	1.78648e-20 7.60348 	-0.133034 	2.65466e-20 7.60218 	-0.133045 	-4.33094e-21 7.5909 	-0.134481 	6.70267e-20 7.58309 	-0.135287 	9.18032e-20 7.57536 	-0.136071 	1.14967e-19 7.56863 	-0.13674 	1.27989e-19 7.56749 	-0.13677 	8.54397e-20 7.5563 	-0.138222 	1.71471e-19 7.54768 	-0.139205 	1.94844e-19 7.53994 	-0.140026 	1.96582e-19 7.53452 	-0.140583 	1.64871e-19 7.53322 	-0.140673 	7.4031e-20 7.52209 	-0.142143 	1.19521e-19 7.51269 	-0.1433 	1.33163e-19 7.50493 	-0.14416 	1.16725e-19 7.50077 	-0.144614 	6.61447e-20 7.49931 	-0.144764 	-9.9093e-21 7.48823 	-0.146256 	-2.8909e-20 7.47805 	-0.147583 	-4.43294e-20 7.47025 	-0.148483 	-5.05084e-20 7.46732 	-0.14884 	-5.15077e-20 7.4657 	-0.149051 	-5.11202e-20 7.45467 	-0.150566 	-7.79694e-20 7.4437 	-0.152059 	-1.03629e-19 7.43592 	-0.152995 	-9.8157e-20 7.43413 	-0.153267 	-6.32683e-20 7.43233 	-0.153539 	-2.83782e-20 7.42133 	-0.155078 	-4.67612e-20 7.41028 	-0.156618 	-6.51442e-20 7.40311 	-0.157567 	-6.48062e-20 7.40114 	-0.1579 	-3.35471e-20 7.39916 	-0.158234 	-2.2847e-21 7.38819 	-0.1598 	8.44952e-20 7.37715 	-0.161367 	1.71285e-19 7.37046 	-0.162351 	1.78063e-19 7.3683 	-0.162747 	1.03371e-19 7.36614 	-0.163143 	2.86765e-20 7.35517 	-0.164738 	3.33151e-20 7.34415 	-0.166333 	3.79586e-20 7.3379 	-0.167356 	3.5245e-20 7.33556 	-0.167814 	2.42225e-20 7.33319 	-0.168273 	1.32011e-20 7.32223 	-0.169898 	2.63355e-20 7.3112 	-0.171524 	3.94757e-20 7.30539 	-0.172586 	3.86225e-20 7.30284 	-0.173107 	1.20842e-20 7.30028 	-0.173629 	-1.44662e-20 7.2893 	-0.175287 	-8.35059e-21 7.27935 	-0.17683 	-4.61054e-21 7.27368 	-0.17791 	-1.04276e-20 7.27011 	-0.178633 	-1.33971e-20 7.26734 	-0.179217 	-1.52619e-20 7.25634 	-0.180909 	-6.69637e-22 7.2477 	-0.182345 	1.02503e-20 7.2419 	-0.183474 	1.67907e-20 7.23731 	-0.184395 	1.88234e-20 7.23431 	-0.185042 	1.49482e-20 7.22328 	-0.18677 	3.16931e-20 7.21592 	-0.188104 	3.36487e-20 7.20998 	-0.189284 	2.98308e-20 7.20437 	-0.1904 	2.52472e-20 7.20115 	-0.19111 	1.57806e-20 7.19006 	-0.192875 	-6.64836e-21 7.18395 	-0.194112 	-1.83593e-20 7.17785 	-0.195342 	-2.99501e-20 7.17171 	-0.196573 	-4.15375e-20 7.16778 	-0.197425 	-2.24407e-20 7.15796 	-0.19909 	-7.07842e-20 7.15174 	-0.200372 	-6.54429e-20 7.14548 	-0.201654 	-6.00863e-20 7.13917 	-0.202936 	-5.47146e-20 7.13417 	-0.203991 	-2.28106e-20 7.12563 	-0.205554 	-4.20942e-21 7.11924 	-0.206887 	-2.10161e-22 7.1128 	-0.208221 	3.76966e-21 7.10631 	-0.209555 	7.73e-21 7.10024 	-0.210811 	4.92332e-21 7.09601 	-0.211627 	7.77547e-21 7.09252 	-0.212365 	9.92509e-21 7.08901 	-0.213103 	1.20733e-20 7.0855 	-0.21384 	1.42201e-20 7.0821 	-0.21455 	1.6285e-20 7.07879 	-0.215203 	1.78478e-20 7.07547 	-0.215855 	1.94084e-20 7.07213 	-0.216507 	2.09669e-20 7.06879 	-0.21716 	2.25231e-20 7.06557 	-0.217747 	2.66875e-20 7.05863 	-0.219247 	2.63713e-20 7.0515 	-0.220683 	2.6649e-20 7.04431 	-0.222118 	2.69223e-20 7.03707 	-0.223554 	2.71914e-20 7.0302 	-0.224789 	2.87253e-20 7.02335 	-0.226478 	7.12138e-21 7.016 	-0.227966 	-3.30647e-21 7.00859 	-0.229454 	-1.37486e-20 7.00113 	-0.230942 	-2.42051e-20 6.99432 	-0.232097 	-8.39303e-21 6.98756 	-0.233974 	9.23761e-21 6.97998 	-0.235515 	1.6742e-20 6.97235 	-0.237056 	2.42535e-20 6.96478 	-0.238536 	2.97797e-20 6.95787 	-0.239672 	2.39511e-20 6.95093 	-0.241619 	2.59429e-20 6.94338 	-0.24333 	3.08559e-20 6.9355 	-0.244923 	3.7234e-20 6.92797 	-0.246318 	4.26278e-20 6.92079 	-0.247514 	4.70378e-20 6.91361 	-0.249505 	1.94555e-20 6.90614 	-0.251411 	-4.4195e-21 6.89801 	-0.253056 	-1.70667e-20 6.89048 	-0.254365 	-7.06511e-21 6.88302 	-0.255621 	6.6184e-21 6.87557 	-0.257658 	3.00863e-20 6.86804 	-0.259694 	5.35557e-20 6.85996 	-0.261366 	5.15564e-20 6.85225 	-0.26268 	2.39378e-20 6.84449 	-0.263993 	-3.68254e-21 6.83676 	-0.266076 	-5.03743e-21 6.82896 	-0.268158 	-6.39032e-21 6.82123 	-0.269888 	-5.59993e-21 6.81321 	-0.271259 	-8.48843e-22 6.80513 	-0.27263 	3.90048e-21 6.79712 	-0.274757 	-3.16068e-21 6.78903 	-0.276883 	-1.0184e-20 6.78156 	-0.278641 	-6.39342e-21 6.7733 	-0.280101 	7.52721e-21 6.76489 	-0.281528 	2.25836e-20 6.75658 	-0.283699 	3.2718e-20 6.74845 	-0.285722 	3.65041e-20 6.74066 	-0.287529 	3.10526e-20 6.73245 	-0.289202 	1.91009e-20 6.72371 	-0.290684 	-2.01815e-21 6.71508 	-0.292897 	-2.71796e-20 6.70689 	-0.294817 	-3.6452e-20 6.69875 	-0.296673 	-4.22736e-20 6.69054 	-0.298529 	-4.80857e-20 6.68152 	-0.300094 	-4.28951e-20 6.67271 	-0.302262 	-4.5386e-20 6.66428 	-0.304166 	-4.31648e-20 6.65579 	-0.306069 	-4.09392e-20 6.64722 	-0.307971 	-3.87093e-20 6.63826 	-0.309753 	-3.34303e-20 6.63187 	-0.311248 	-2.8865e-20 6.62564 	-0.312634 	-2.17683e-20 6.61937 	-0.314019 	-1.467e-20 6.61305 	-0.315405 	-7.57004e-21 6.60705 	-0.316714 	-8.5534e-22 6.60464 	-0.317293 	1.90043e-21 6.60222 	-0.317872 	4.65602e-21 6.59979 	-0.31845 	7.41144e-21 6.59736 	-0.319029 	1.01667e-20 6.59482 	-0.319559 	1.31347e-20 6.58687 	-0.321607 	1.98188e-20 6.57856 	-0.323601 	2.53214e-20 6.57017 	-0.325595 	3.08292e-20 6.56172 	-0.327588 	3.63423e-20 6.55271 	-0.329373 	3.21751e-20 6.54538 	-0.33164 	3.65956e-20 6.53669 	-0.333675 	3.29013e-20 6.52794 	-0.33571 	2.92107e-20 6.5191 	-0.337745 	2.55239e-20 6.50932 	-0.33941 	1.35221e-20 6.50225 	-0.341831 	2.88108e-22 6.49355 	-0.343972 	-6.08796e-21 6.4844 	-0.346045 	-1.08136e-20 6.47479 	-0.347959 	-8.53596e-21 6.46459 	-0.349661 	2.9862e-21 6.4571 	-0.352112 	2.14589e-20 6.44906 	-0.354477 	3.65109e-20 6.4395 	-0.356586 	4.10964e-20 6.42907 	-0.358369 	3.03531e-20 6.41846 	-0.360113 	1.77598e-20 6.41054 	-0.362591 	2.16596e-20 6.40253 	-0.365068 	2.55616e-20 6.39285 	-0.36719 	2.66156e-20 6.3819 	-0.368971 	2.45607e-20 6.37086 	-0.370751 	2.25067e-20 6.36249 	-0.373253 	8.17557e-21 6.35403 	-0.375754 	-6.15345e-21 6.3446 	-0.377935 	-1.32631e-20 6.33321 	-0.379748 	-6.99463e-21 6.32173 	-0.38156 	-7.28974e-22 6.3129 	-0.384083 	7.8079e-21 6.30364 	-0.38648 	1.34652e-20 6.29372 	-0.388651 	1.39955e-20 6.28294 	-0.390684 	9.11671e-21 6.271 	-0.392525 	-3.26346e-21 6.26169 	-0.395064 	-7.78341e-21 6.25148 	-0.397298 	-5.85e-21 6.24107 	-0.399489 	-3.00715e-21 6.23058 	-0.401679 	-1.57185e-22 6.21862 	-0.403622 	4.03375e-21 6.20843 	-0.406032 	1.02021e-20 6.19761 	-0.408238 	1.22257e-20 6.18671 	-0.410442 	1.4249e-20 6.17571 	-0.412645 	1.62723e-20 6.16451 	-0.414829 	1.81427e-20 6.16364 	-0.415025 	1.82258e-20 6.16272 	-0.415204 	1.82746e-20 6.16181 	-0.415384 	1.83233e-20 6.1609 	-0.415563 	1.83721e-20 6.15999 	-0.415742 	1.84206e-20 6.15001 	-0.41778 	2.12603e-20 6.13996 	-0.419817 	2.41174e-20 6.12983 	-0.421853 	2.69917e-20 6.11963 	-0.423889 	2.98835e-20 6.10969 	-0.425757 	1.6323e-20 6.09869 	-0.428186 	1.07786e-20 6.08726 	-0.430404 	6.17129e-21 6.07574 	-0.432622 	1.55669e-21 6.06417 	-0.43482 	-3.09181e-21 6.05313 	-0.436704 	-8.17751e-21 6.0418 	-0.439244 	-8.62931e-21 6.03003 	-0.44158 	-8.10247e-21 6.01798 	-0.443795 	-7.00473e-21 6.00623 	-0.4458 	-6.23367e-23 5.99463 	-0.447683 	1.02913e-20 5.98276 	-0.450215 	3.65361e-20 5.9708 	-0.452745 	6.27775e-20 5.9584 	-0.454925 	6.04025e-20 5.94631 	-0.456804 	3.67764e-20 5.93413 	-0.458683 	1.31501e-20 5.92172 	-0.461203 	-1.64038e-20 5.90921 	-0.463722 	-4.59455e-20 5.89704 	-0.465948