# vtk DataFile Version 2.0
track0
ASCII
DATASET POLYDATA
POINTS 10844 float
-0.0205 0.001 1e-05
-0.0202034 0.00100023 1e-05
-0.0199069 0.00100077 1e-05
-0.0196103 0.0010015 1e-05
-0.0193137 0.00100243 1e-05
-0.0190172 0.00100355 1e-05
-0.0187132 0.00100513 1e-05
-0.0184093 0.00100627 1e-05
-0.0181054 0.00100736 1e-05
-0.0178015 0.0010084 1e-05
-0.0174976 0.00100941 1e-05
-0.0172058 0.00101071 1e-05
-0.016914 0.00101143 1e-05
-0.0166222 0.00101212 1e-05
-0.0163305 0.00101278 1e-05
-0.0160387 0.00101341 1e-05
-0.0157586 0.00101437 1e-05
-0.0154784 0.00101494 1e-05
-0.0151983 0.00101555 1e-05
-0.0149182 0.0010162 1e-05
-0.0146381 0.00101689 1e-05
-0.0143692 0.00101788 1e-05
-0.0141002 0.00101864 1e-05
-0.0138313 0.00101945 1e-05
-0.0135624 0.00102032 1e-05
-0.0132934 0.00102124 1e-05
-0.0130353 0.00102237 1e-05
-0.0127771 0.00102336 1e-05
-0.0125189 0.00102439 1e-05
-0.0122607 0.00102547 1e-05
-0.0120025 0.00102658 1e-05
-0.0117547 0.00102779 1e-05
-0.0115068 0.00102894 1e-05
-0.0112589 0.00103011 1e-05
-0.0110111 0.0010313 1e-05
-0.0107632 0.00103253 1e-05
-0.0105252 0.00103377 1e-05
-0.0102873 0.00103499 1e-05
-0.0100493 0.00103623 1e-05
-0.00981133 0.00103748 1e-05
-0.00957337 0.00103875 1e-05
-0.00951793 0.00103905 1e-05
-0.0094625 0.00103935 1e-05
-0.00940707 0.00103965 1e-05
-0.00935163 0.00103995 1e-05
-0.00929631 0.00104025 1e-05
-0.00912327 0.0010412 1e-05
-0.00895022 0.00104215 1e-05
-0.00877717 0.0010431 1e-05
-0.00860413 0.00104406 1e-05
-0.00843108 0.00104503 1e-05
-0.00821175 0.00104625 1e-05
-0.00799242 0.00104748 1e-05
-0.00777309 0.00104872 1e-05
-0.00755376 0.00104996 1e-05
-0.00733443 0.0010512 1e-05
-0.00712387 0.00105239 1e-05
-0.0069133 0.00105358 1e-05
-0.00670273 0.00105478 1e-05
-0.00649217 0.00105598 1e-05
-0.0062816 0.00105717 1e-05
-0.00607944 0.00105831 1e-05
-0.00587729 0.00105945 1e-05
-0.00567514 0.0010606 1e-05
-0.00547298 0.00106174 1e-05
-0.00527083 0.00106288 1e-05
-0.00507675 0.00106395 1e-05
-0.00488267 0.00106504 1e-05
-0.0046886 0.00106612 1e-05
-0.00449452 0.00106719 1e-05
-0.00430044 0.00106827 1e-05
-0.00411412 0.00106928 1e-05
-0.0039278 0.0010703 1e-05
-0.00374147 0.00107131 1e-05
-0.00355515 0.00107231 1e-05
-0.00336883 0.00107331 1e-05
-0.00318995 0.00107426 1e-05
-0.00301107 0.0010752 1e-05
-0.00283219 0.00107614 1e-05
-0.00265331 0.00107707 1e-05
-0.00247443 0.001078 1e-05
-0.0023027 0.00107886 1e-05
-0.00213097 0.00107973 1e-05
-0.00195924 0.00108059 1e-05
-0.0017875 0.00108144 1e-05
-0.00161577 0.00108228 1e-05
-0.0014509 0.00108306 1e-05
-0.00128603 0.00108384 1e-05
-0.00112116 0.00108461 1e-05
-0.000956289 0.00108536 1e-05
-0.000791418 0.00108609 1e-05
-0.000633135 0.00108678 1e-05
-0.000474851 0.00108744 1e-05
-0.000316567 0.00108809 1e-05
-0.000158283 0.00108871 1e-05
-9.35959e-21 0.00108931 1e-05
0.000105677 0.00108969 1e-05
0.000211355 0.00109006 1e-05
0.000317032 0.00109042 1e-05
0.00042271 0.00109077 1e-05
0.000528387 0.0010911 1e-05
0.000634886 0.00109142 1e-05
0.000741385 0.00109173 1e-05
0.000847885 0.00109203 1e-05
0.000954384 0.00109233 1e-05
0.00106088 0.00109261 1e-05
0.00116821 0.00109288 1e-05
0.00127554 0.00109315 1e-05
0.00138286 0.00109342 1e-05
0.00149019 0.00109367 1e-05
0.00159752 0.00109391 1e-05
0.00170568 0.00109414 1e-05
0.00181384 0.00109437 1e-05
0.001922 0.0010946 1e-05
0.00203016 0.00109481 1e-05
0.00213833 0.00109501 1e-05
0.00224733 0.0010952 1e-05
0.00235633 0.0010954 1e-05
0.00246533 0.00109558 1e-05
0.00257434 0.00109576 1e-05
0.00268334 0.00109593 1e-05
0.00279319 0.00109609 1e-05
0.00290304 0.00109625 1e-05
0.00301289 0.00109641 1e-05
0.00312274 0.00109657 1e-05
0.00323259 0.00109672 1e-05
0.00334329 0.00109685 1e-05
0.003454 0.00109699 1e-05
0.0035647 0.00109713 1e-05
0.0036754 0.00109726 1e-05
0.00378611 0.00109739 1e-05
0.00389767 0.00109751 1e-05
0.00400924 0.00109763 1e-05
0.0041208 0.00109775 1e-05
0.00423237 0.00109786 1e-05
0.00434393 0.00109798 1e-05
0.00445636 0.00109808 1e-05
0.00456879 0.00109818 1e-05
0.00468123 0.00109828 1e-05
0.00479366 0.00109838 1e-05
0.00490609 0.00109847 1e-05
0.0050194 0.00109855 1e-05
0.0051327 0.00109864 1e-05
0.00524601 0.00109872 1e-05
0.00535932 0.0010988 1e-05
0.00547262 0.00109887 1e-05
0.00558681 0.00109894 1e-05
0.005701 0.00109901 1e-05
0.00581518 0.00109907 1e-05
0.00592937 0.00109913 1e-05
0.00604356 0.00109919 1e-05
0.00615863 0.00109924 1e-05
0.00627371 0.00109928 1e-05
0.00638878 0.00109933 1e-05
0.00650386 0.00109937 1e-05
0.00661893 0.0010994 1e-05
0.0067349 0.00109943 1e-05
0.00685087 0.00109946 1e-05
0.00696684 0.00109949 1e-05
0.00708281 0.0010995 1e-05
0.00719878 0.00109952 1e-05
0.00723621 0.00109952 1e-05
0.00727365 0.00109953 1e-05
0.00731109 0.00109953 1e-05
0.00734852 0.00109953 1e-05
0.00738541 0.00109953 1e-05
0.00746496 0.00109953 1e-05
0.0075445 0.00109953 1e-05
0.00762405 0.00109953 1e-05
0.00770359 0.00109953 1e-05
0.00778313 0.00109952 1e-05
0.00790091 0.00109951 1e-05
0.00801869 0.00109949 1e-05
0.00813647 0.00109947 1e-05
0.00825425 0.00109944 1e-05
0.00837203 0.00109941 1e-05
0.00849073 0.00109937 1e-05
0.00860942 0.00109933 1e-05
0.00872812 0.00109928 1e-05
0.00884682 0.00109923 1e-05
0.00896551 0.00109917 1e-05
0.00908513 0.0010991 1e-05
0.00920475 0.00109903 1e-05
0.00932437 0.00109896 1e-05
0.00944398 0.00109888 1e-05
0.0095636 0.00109879 1e-05
0.00968415 0.00109869 1e-05
0.0098047 0.00109859 1e-05
0.00992525 0.00109849 1e-05
0.0100458 0.00109838 1e-05
0.0101663 0.00109827 1e-05
0.0102878 0.00109814 1e-05
0.0104093 0.00109801 1e-05
0.0105308 0.00109788 1e-05
0.0106523 0.00109774 1e-05
0.0107738 0.0010976 1e-05
0.0108962 0.00109743 1e-05
0.0110186 0.00109727 1e-05
0.0111411 0.0010971 1e-05
0.0112635 0.00109693 1e-05
0.0113859 0.00109676 1e-05
0.0115093 0.00109655 1e-05
0.0116327 0.00109636 1e-05
0.0117561 0.00109616 1e-05
0.0118795 0.00109596 1e-05
0.0120028 0.00109575 1e-05
0.0121272 0.00109551 1e-05
0.0122515 0.00109528 1e-05
0.0123759 0.00109505 1e-05
0.0125002 0.00109481 1e-05
0.0126245 0.00109456 1e-05
0.0127498 0.00109428 1e-05
0.0128752 0.00109401 1e-05
0.0130005 0.00109374 1e-05
0.0131258 0.00109346 1e-05
0.0132511 0.00109318 1e-05
0.0133774 0.00109286 1e-05
0.0135036 0.00109255 1e-05
0.0136299 0.00109224 1e-05
0.0137562 0.00109192 1e-05
0.0138825 0.0010916 1e-05
0.0140098 0.00109124 1e-05
0.014137 0.00109089 1e-05
0.0142643 0.00109054 1e-05
0.0143915 0.00109017 1e-05
0.0145188 0.0010898 1e-05
0.0146471 0.0010894 1e-05
0.0147753 0.00108901 1e-05
0.0149036 0.00108862 1e-05
0.0150318 0.00108821 1e-05
0.0151601 0.0010878 1e-05
0.0152893 0.00108735 1e-05
0.0154186 0.00108691 1e-05
0.0155478 0.00108647 1e-05
0.0156771 0.00108602 1e-05
0.0158063 0.00108556 1e-05
0.0159366 0.00108507 1e-05
0.0160668 0.00108458 1e-05
0.0161971 0.00108409 1e-05
0.0163274 0.00108359 1e-05
0.0164576 0.00108308 1e-05
0.0165889 0.00108255 1e-05
0.0167201 0.00108201 1e-05
0.0168514 0.00108147 1e-05
0.0169827 0.00108092 1e-05
0.0171139 0.00108036 1e-05
0.0172462 0.00107978 1e-05
0.0173785 0.00107919 1e-05
0.0175108 0.0010786 1e-05
0.0176431 0.00107799 1e-05
0.0177754 0.00107738 1e-05
0.0179087 0.00107675 1e-05
0.018042 0.00107611 1e-05
0.0181753 0.00107546 1e-05
0.0183087 0.0010748 1e-05
0.018442 0.00107414 1e-05
0.0185763 0.00107345 1e-05
0.0187107 0.00107276 1e-05
0.018845 0.00107206 1e-05
0.0189794 0.00107134 1e-05
0.0191137 0.00107062 1e-05
0.0192491 0.00106989 1e-05
0.0193845 0.00106914 1e-05
0.0195199 0.00106838 1e-05
0.0196553 0.00106761 1e-05
0.0197907 0.00106683 1e-05
0.0199272 0.00106605 1e-05
0.0200636 0.00106524 1e-05
0.0202001 0.00106442 1e-05
0.0203365 0.00106359 1e-05
0.020473 0.00106276 1e-05
0.0206105 0.00106192 1e-05
0.020748 0.00106106 1e-05
0.0208855 0.00106018 1e-05
0.021023 0.00105929 1e-05
0.0211606 0.0010584 1e-05
0.0212991 0.0010575 1e-05
0.0214377 0.00105659 1e-05
0.0215763 0.00105564 1e-05
0.0217149 0.00105469 1e-05
0.0218535 0.00105374 1e-05
0.0219931 0.0010528 1e-05
0.0221328 0.00105182 1e-05
0.0222724 0.00105082 1e-05
0.0224121 0.0010498 1e-05
0.0225517 0.00104879 1e-05
0.0226925 0.00104779 1e-05
0.0228332 0.00104676 1e-05
0.022974 0.00104569 1e-05
0.0231147 0.00104461 1e-05
0.0232555 0.00104355 1e-05
0.0233973 0.00104249 1e-05
0.0235391 0.00104139 1e-05
0.023681 0.00104027 1e-05
0.0238228 0.00103913 1e-05
0.0239647 0.00103801 1e-05
0.0241076 0.00103689 1e-05
0.0242505 0.00103574 1e-05
0.0243935 0.00103455 1e-05
0.0245364 0.00103335 1e-05
0.0246794 0.00103217 1e-05
0.0248234 0.00103099 1e-05
0.0249675 0.00102978 1e-05
0.0251115 0.00102853 1e-05
0.0252556 0.00102727 1e-05
0.0253996 0.00102603 1e-05
0.0255448 0.00102479 1e-05
0.02569 0.00102352 1e-05
0.0258351 0.00102221 1e-05
0.0259803 0.00102089 1e-05
0.0261255 0.00101959 1e-05
0.0262718 0.00101829 1e-05
0.0264181 0.00101696 1e-05
0.0265644 0.00101559 1e-05
0.0267107 0.00101421 1e-05
0.026857 0.00101284 1e-05
0.0270044 0.00101149 1e-05
0.0271519 0.0010101 1e-05
0.0272993 0.00100866 1e-05
0.0274468 0.00100722 1e-05
0.0275942 0.00100579 1e-05
0.0277428 0.00100438 1e-05
0.0278914 0.00100292 1e-05
0.0280399 0.00100143 1e-05
0.0281885 0.00099992 1e-05
0.0283371 0.000998433 1e-05
0.0284869 0.000996955 1e-05
0.0286366 0.000995435 1e-05
0.0287863 0.000993876 1e-05
0.0289361 0.000992309 1e-05
0.0290858 0.00099076 1e-05
0.0292367 0.000989217 1e-05
0.0293876 0.000987634 1e-05
0.0295385 0.000986016 1e-05
0.0296894 0.000984389 1e-05
0.0298403 0.000982776 1e-05
0.0299924 0.000981168 1e-05
0.0301445 0.00097952 1e-05
0.0302966 0.000977841 1e-05
0.0304486 0.000976154 1e-05
0.0306007 0.000974475 1e-05
0.030754 0.0009728 1e-05
0.0309072 0.000971086 1e-05
0.0310605 0.000969345 1e-05
0.0312138 0.000967595 1e-05
0.031367 0.000965849 1e-05
0.0315215 0.000964106 1e-05
0.0316759 0.000962323 1e-05
0.0318304 0.000960519 1e-05
0.0319848 0.000958704 1e-05
0.0321393 0.000956889 1e-05
0.0322949 0.000955076 1e-05
0.0324506 0.000953222 1e-05
0.0326062 0.000951351 1e-05
0.0327619 0.00094947 1e-05
0.0329175 0.000947584 1e-05
0.0330744 0.000945697 1e-05
0.0332313 0.000943771 1e-05
0.0333881 0.000941832 1e-05
[...]
POINT_DATA 10844
 FIELD attributes 2
p 1 10844 float
-6.20362 -6.20831 -6.19986 -6.19132 -6.1827 -6.16729 -6.16949 -6.1801 -6.19071 -6.20133 -6.23631 -6.24583 -6.27937 -6.3129 -6.34644 -6.39437 -6.39858 -6.42565 -6.45273 -6.47983 -6.51987 -6.53102 -6.55705 -6.58311 -6.60919 -6.6448 -6.66367 -6.69017 -6.71668 -6.7432 -6.77446 -6.79419 -6.8175 -6.84081 -6.86412 -6.88921 -6.90724 -6.92672 -6.9462 -6.96568 -6.98542 -6.98938 -6.99354 -6.9977 -7.00186 -7.00602 -7.01901 -7.03201 -7.04501 -7.05801 -7.07058 -7.08674 -7.10262 -7.11851 -7.13439 -7.1495 -7.16497 -7.17993 -7.19488 -7.20984 -7.22384 -7.23871 -7.25295 -7.2672 -7.28144 -7.29468 -7.30914 -7.32297 -7.33679 -7.35062 -7.36347 -7.37779 -7.39154 -7.40529 -7.41903 -7.43187 -7.44629 -7.46023 -7.47418 -7.48812 -7.50119 -7.51595 -7.53048 -7.54501 -7.55953 -7.57315 -7.58819 -7.60317 -7.61815 -7.63313 -7.64684 -7.65973 -7.67196 -7.68419 -7.69643 -7.70681 -7.71322 -7.71799 -7.72277 -7.72754 -7.73114 -7.73275 -7.73244 -7.73212 -7.73181 -7.73097 -7.73192 -7.73194 -7.73197 -7.73199 -7.73193 -7.73535 -7.73724 -7.73912 -7.74101 -7.74176 -7.74588 -7.74757 -7.74926 -7.75094 -7.7506 -7.75404 -7.75513 -7.75622 -7.75731 -7.75633 -7.75928 -7.7604 -7.76152 -7.76265 -7.76205 -7.76464 -7.76588 -7.76711 -7.76835 -7.76831 -7.77033 -7.7714 -7.77247 -7.77355 -7.77378 -7.77518 -7.77599 -7.7768 -7.77761 -7.77795 -7.77892 -7.77958 -7.78023 -7.78088 -7.78132 -7.78205 -7.78263 -7.78322 -7.7838 -7.78431 -7.78492 -7.78547 -7.78603 -7.78658 -7.78713 -7.78732 -7.78749 -7.78767 -7.78785 -7.78803 -7.78842 -7.7888 -7.78918 -7.78957 -7.78993 -7.79055 -7.79116 -7.79178 -7.79239 -7.79303 -7.79366 -7.79436 -7.79506 -7.79576 -7.79661 -7.79717 -7.79797 -7.79877 -7.79957 -7.80076 -7.80115 -7.80205 -7.80295 -7.80385 -7.8055 -7.80562 -7.80663 -7.80763 -7.80864 -7.81085 -7.81062 -7.81174 -7.81287 -7.81399 -7.81683 -7.8162 -7.81744 -7.81868 -7.81992 -7.82344 -7.82238 -7.82372 -7.82507 -7.82641 -7.83063 -7.82912 -7.83059 -7.83206 -7.83352 -7.83849 -7.83659 -7.83821 -7.83984 -7.84147 -7.84718 -7.84499 -7.84677 -7.84855 -7.85033 -7.85665 -7.85421 -7.85611 -7.85801 -7.8599 -7.86672 -7.86409 -7.86611 -7.86813 -7.87015 -7.87744 -7.87476 -7.87693 -7.87911 -7.88149 -7.88893 -7.88672 -7.88869 -7.89101 -7.89396 -7.90115 -7.89948 -7.90124 -7.90369 -7.9071 -7.91399 -7.91287 -7.91447 -7.91705 -7.92086 -7.92741 -7.92687 -7.92839 -7.93109 -7.93522 -7.94142 -7.94145 -7.94298 -7.94581 -7.95017 -7.95602 -7.95661 -7.95822 -7.96118 -7.96568 -7.9712 -7.97232 -7.97408 -7.97716 -7.98173 -7.98691 -7.98854 -7.9905 -7.99369 -7.99826 -8.00313 -8.00522 -8.00743 -8.01073 -8.01524 -8.01985 -8.02236 -8.02487 -8.02829 -8.03267 -8.03705 -8.03993 -8.04281 -8.04633 -8.05052 -8.05471 -8.05791 -8.06111 -8.06472 -8.06876 -8.0728 -8.07628 -8.07975 -8.08345 -8.08738 -8.09131 -8.09502 -8.09872 -8.1025 -8.10636 -8.11021 -8.1141 -8.11799 -8.12185 -8.12568 -8.1295 -8.13356 -8.13762 -8.14155 -8.14535 -8.14916 -8.15338 -8.1576 -8.16158 -8.16535 -8.16913 -8.17346 -8.17779 -8.1818 -8.18557 -8.18933 -8.19372 -8.19806 -8.20212 -8.20594 -8.2097 -8.21412 -8.21844 -8.22253 -8.22643 -8.23021 -8.23464 -8.23892 -8.24304 -8.24701 -8.25084 -8.25525 -8.2595 -8.26363 -8.26768 -8.27155 -8.27593 -8.28013 -8.28427 -8.28837 -8.29227 -8.29661 -8.30076 -8.3049 -8.30902 -8.31295 -8.31723 -8.32134 -8.32545 -8.32957 -8.33353 -8.33772 -8.3418 -8.34588 -8.34996 -8.35394 -8.35804 -8.36208 -8.36612 -8.37016 -8.37413 -8.37815 -8.38213 -8.38612 -8.3901 -8.39404 -8.39797 -8.40188 -8.40579 -8.40971 -8.4136 -8.41743 -8.42125 -8.42507 -8.42889 -8.43272 -8.43277 -8.43282 -8.43288 -8.43293 -8.43298 -8.43666 -8.44034 -8.44403 -8.44771 -8.45139 -8.45501 -8.45862 -8.46223 -8.46584 -8.46942 -8.47294 -8.4764 -8.47986 -8.48332 -8.48674 -8.49013 -8.49343 -8.49672 -8.50003 -8.50325 -8.50651 -8.50963 -8.51276 -8.51588 -8.5189 -8.52201 -8.52494 -8.52787 -8.53078 -8.53357 -8.53648 -8.53922 -8.54192 -8.54455 -8.54709 -8.54975 -8.55229 -8.55472 -8.55705 -8.5593 -8.5617 -8.56402 -8.56617 -8.56816 -8.57012 -8.57223 -8.57434 -8.57618 -8.5778 -8.57942 -8.58123 -8.58304 -8.58455 -8.5858 -8.58706 -8.58851 -8.58998 -8.59113 -8.59198 -8.59284 -8.59392 -8.595 -8.59577 -8.59619 -8.59662 -8.59728 -8.59795 -8.59832 -8.59828 -8.59824 -8.59847 -8.59862 -8.5985 -8.59809 -8.59755 -8.5973 -8.59688 -8.59625 -8.59544 -8.59437 -8.5936 -8.59254 -8.59138 -8.59015 -8.58851 -8.58719 -8.58545 -8.5837 -8.58195 -8.5798 -8.57777 -8.5754 -8.57303 -8.57066 -8.56804 -8.56523 -8.5622 -8.55917 -8.55615 -8.55303 -8.55112 -8.54914 -8.54715 -8.54517 -8.54326 -8.54154 -8.53982 -8.5381 -8.53638 -8.53464 -8.53029 -8.5259 -8.52151 -8.51713 -8.51265 -8.50764 -8.50247 -8.4973 -8.49214 -8.48679 -8.48109 -8.4751 -8.46911 -8.46309 -8.45685 -8.45033 -8.44358 -8.43674 -8.42975 -8.42261 -8.4152 -8.4077 -8.39995 -8.39191 -8.38384 -8.37549 -8.36715 -8.35843 -8.34936 -8.34031 -8.33098 -8.32166 -8.31196 -8.30188 -8.29179 -8.28145 -8.2711 -8.26035 -8.24924 -8.23808 -8.22666 -8.21507 -8.20322 -8.1912 -8.17892 -8.16639 -8.15347 -8.14047 -8.12747 -8.11407 -8.10025 -8.08604 -8.07184 -8.05765 -8.04328 -8.03247 -8.02148 -8.0105 -7.99952 -7.98915 -7.98458 -7.98001 -7.97544 -7.97087 -7.96625 -7.9496 -7.93289 -7.9162 -7.89952 -7.88262 -7.86484 -7.84681 -7.8288 -7.81079 -7.79237 -7.77336 -7.75405 -7.73467 -7.7151 -7.69527 -7.67487 -7.65438 -7.6336 -7.61238 -7.59111 -7.56928 -7.54746 -7.52518 -7.50243 -7.47968 -7.45639 -7.4331 -7.40932 -7.38507 -7.36081 -7.33601 -7.31102 -7.28565 -7.26012 -7.23433 -7.208 -7.18115 -7.15423 -7.12732 -7.10008 -7.07194 -7.04343 -7.01494 -6.98645 -6.95794 -6.95553 -6.95308 -6.95064 -6.94819 -6.94577 -6.91822 -6.89069 -6.86317 -6.83565 -6.80771 -6.77651 -6.74494 -6.71338 -6.68177 -6.64934 -6.61673 -6.58376 -6.55057 -6.51683 -6.48275 -6.4485 -6.41426 -6.37932 -6.3436 -6.30787 -6.27197 -6.23608 -6.19942 -6.16206 -6.1247 -6.08715 -6.04922 -6.0108 -5.97227 -5.9333 -5.89406 -5.85403 -5.81401 -5.774 -5.73381 -5.71782 -5.70161 -5.6854 -5.66919 -5.65344 -5.62807 -5.6027 -5.57734 -5.55199 -5.52626 -5.48357 -5.44061 -5.39768 -5.35469 -5.31085 -5.26688 -5.22268 -5.17826 -5.13321 -5.08792 -5.04248 -4.99706 -4.95103 -4.90438 -4.8577 -4.81085 -4.76388 -4.71628 -4.66848 -4.62049 -4.57229 -4.52346 -4.47457 -4.4257 -4.37665 -4.35449 -4.33211 -4.30973 -4.28735 -4.26564 -4.23785 -4.21006 -4.18229 -4.15451 -4.12643 -4.07548 -4.02437 -3.97328 -3.92209 -3.87034 -3.81842 -3.76645 -3.71435 -3.66171 -3.60902 -3.55612 -3.50325 -3.45 -3.39651 -3.343 -3.28924 -3.23527 -3.18115 -3.12705 -3.07284 -3.03428 -2.99554 -2.95681 -2.91809 -2.88095 -2.86459 -2.84824 -2.83188 -2.81553 -2.79909 -2.74377 -2.68846 -2.63317 -2.57787 -2.5223 -2.46651 -2.41075 -2.35505 -2.29922 -2.24335 -2.18722 -2.1311 -2.07495 -2.01896 -1.96293 -1.90661 -1.85034 -1.7941 -1.73787 -1.68176 -1.65713 -1.63256 -1.608 -1.58344 -1.55937 -1.52757 -1.49578 -1.46399 -1.4322 -1.40045 -1.34405 -1.2879 -1.23176 -1.17571 -1.11975 -1.06352 -1.0073 -0.951481 -0.895953 -0.840393 -0.784533 -0.728779 -0.67331 -0.617981 -0.562936 -0.515723 -0.468878 -0.422041 -0.37521 -0.329659 -0.321291 -0.312923 -0.304555 -0.296188 -0.287872 -0.233224 -0.178695 -0.124172 -0.0696903 -0.0155897 0.0387546 0.0929444 0.146723 0.200018 0.253335 0.30691 0.360477 0.413529 0.466139 0.518613 0.571356 0.62359 0.675784 0.727975 0.780081 0.785429 0.790721 0.796013 0.801306 0.80659 0.852916 0.89924 0.945562 0.991881 1.03785 1.08918 1.14014 1.19088 1.24124 1.29153 1.34193 1.39234 1.44231 1.49159 1.54088 1.59031 1.63937 1.68828 1.73719 1.78577 1.8018 1.81767 1.83354 1.84941 1.86528 1.89754 1.92981 1.96207 1.99433 2.02631 2.07417 2.1214 2.16863 2.21559 2.26234 2.30918 2.35602 2.40231 2.44802 2.49373 2.53954 2.58514 2.63047 2.6758 2.72047 2.74937 2.77797 2.80656 2.83516 2.86402 2.87979 2.89555 2.91132 2.92709 2.94275 2.98664 3.03024 3.07386 3.11741 3.16064 3.20384 3.24689 3.28946 3.33167 3.37386 3.41606 3.45826 3.50014 3.54136 3.58255 3.62377 3.66474 3.7056 3.74646 3.78687 3.80849 3.82995 3.8514 3.87286 3.89463 3.91315 3.93167 3.9502 3.96872 3.9871 4.02674 4.06602 4.10531 4.14452 4.18346 4.22249 4.26144 4.29987 4.33802 4.37616 4.4144 4.45265 4.49065 4.52813 4.56554 4.60306 4.64041 4.6777 4.715 4.75194 4.77129 4.79056 4.80983 4.8291 4.84862 4.86607 4.88351 4.90095 4.9184 4.93575 4.97234 5.00865 5.04497 5.08125 5.11738 5.15368 5.1899 5.22576 5.26152 5.29727 5.33318 5.36908 5.40495 5.44044 5.47591 5.51152 5.54715 5.58279 5.61842 5.65382 5.6746 5.69543 5.71626 5.73708 5.75798 5.77269 5.78741 5.80212 5.81683 5.83156 5.86728 5.90286 5.93845 5.97406 6.00978 6.04567 6.08153 6.11724 6.15317 6.18911 6.2252 6.2613 6.29765 6.33395 6.37024 6.40668 6.4434 6.48024 6.51708 6.5539 6.57118 6.58866 6.60614 6.62362 6.64084 6.6608 6.68077 6.70073 6.7207 6.74089 6.7789 6.81697 6.85505 6.89333 6.932 6.9708 7.00961 7.04874 7.08837 7.12803 7.16781 7.20777 7.24833 7.28896 7.32979 7.36352 7.39794 7.43237 7.46681 7.49951 7.50719 7.51488 7.52256 7.53025 7.53809 7.5809 7.62381 7.66673 7.70984 7.75376 7.79777 7.84179 7.88644 7.93187 7.97738 8.02296 8.06888 8.11556 8.16226 8.20947 8.2338 8.25865 8.28357 8.30849 8.33248 8.35596 8.37945 8.40294 8.4265 8.45055 8.4998 8.54952 8.59927 8.64984 8.70082 8.75181 8.80281 8.85486 8.90734 8.96008 8.99629 9.03307 9.07004 9.10701 9.14259 9.15961 9.17663 9.19365 9.21076 9.22812 9.28276 9.33776 9.39276 9.44844 9.5045 9.56055 9.6166 9.67351 9.73064 9.78801 9.81861 9.84945 9.88042 9.91138 9.94216 9.96915 9.99615 10.0231 10.0502 10.0776 10.136 10.1947 10.2534 10.3127 10.3721 10.4313 10.4905 10.5497 10.6088 10.6678 10.6846 10.7017 10.7189 10.7362 10.7538 10.7964 10.839 10.8816 10.9246 10.9683 11.0295 11.0903 11.1454 11.1945 11.2435 11.2919 11.348 11.4125 11.4769 11.5461 11.5591 11.5703 11.5789 11.5875 11.5963 11.6476 11.6989 11.75 11.79 11.8214 11.8598 11.8982 11.9429 11.9902 12.0385 12.0577 12.0767 12.0957 12.1146 12.1348 12.1639 12.193 12.2221 12.2511 12.28 12.3283 12.3764 12.4214 12.4634 12.5051 12.5367 12.5668 12.5956 12.6243 12.6584 12.6666 12.6747 12.6829 12.6908 12.6982 12.7331 12.7667 12.8002 12.8315 12.8615 12.8899 12.9181 12.9422 12.9649 12.9864 12.9981 13.0076 13.0163 13.025 13.0353 13.0419 13.0484 13.0549 13.0611 13.0659 13.0753 13.082 13.0884 13.0917 13.0927 13.0902 13.0875 13.0803 13.0686 13.0567 13.041 13.021 12.9988 12.9764 12.9513 12.937 12.92 12.903 12.8859 12.8657 12.8477 12.8296 12.8114 12.7932 12.7722 12.725 12.6746 12.6239 12.5714 12.5133 12.4504 12.3862 12.318 12.2429 12.1673 12.0866 12.0058 11.9182 11.8239 11.7296 11.6297 11.528 11.4203 11.3093 11.1957 11.0762 10.9501 10.8218 10.6935 10.5588 10.4155 10.2667 10.1177 9.96878 9.81739 9.6761 9.53061 9.38511 9.2396 9.02803 9.01302 8.99802 8.98301 8.96799 8.95262 8.75856 8.56431 8.37001 8.17564 7.97967 7.75978 7.52976 7.2996 7.0693 6.82161 6.56135 6.31617 6.071 5.82584 5.59981 5.36587 5.0369 4.7075 4.36667 3.9328 3.48335 3.17341 2.89809 2.6673 2.56676 2.46253 2.1361 1.66216 0.921756 0